                  Welcome to Q-Chem
     A Quantum Leap Into The Future Of Chemistry


 Q-Chem 4.3 (beta), Q-Chem, Inc., Pleasanton, CA (2015)

 Y. Shao,  Z. Gan,  E. Epifanovsky,  A. T. B. Gilbert,  M. Wormit,  
 J. Kussmann,  A. W. Lange,  A. Behn,  J. Deng,  X. Feng,  D. Ghosh,  
 M. Goldey,  P. R. Horn,  L. D. Jacobson,  I. Kaliman,  R. Z. Khaliullin,  
 T. Kus,  A. Landau,  J. Liu,  E. I. Proynov,  Y. M. Rhee,  R. M. Richard,  
 M. A. Rohrdanz,  R. P. Steele,  E. J. Sundstrom,  H. L. Woodcock III,  
 P. M. Zimmerman,  D. Zuev,  B. Albrecht,  E. Alguire,  B. Austin,  
 S. A. Baeppler,  G. J. O. Beran,  Y. A. Bernard,  E. Berquist,  
 K. Brandhorst,  K. B. Bravaya,  S. T. Brown,  D. Casanova,  C.-M. Chang,  
 Y. Chen,  S. H. Chien,  K. D. Closser,  D. L. Crittenden,  M. Diedenhofen,  
 R. A. DiStasio Jr.,  H. Do,  A. D. Dutoi,  R. G. Edgar,  P.-T. Fang,  
 S. Fatehi,  Q. Feng,  L. Fusti-Molnar,  A. Ghysels,  
 A. Golubeva-Zadorozhnaya,  J. Gomes,  A. Gunina,  M. W. D. Hanson-Heine,  
 P. H. P. Harbach,  A. W. Hauser,  E. G. Hohenstein,  Z. C. Holden,  K. Hui,  
 T.-C. Jagau,  H. Ji,  B. Kaduk,  K. Khistyaev,  Jaehoon Kim,  Jihan Kim,  
 R. A. King,  P. Klunzinger,  D. Kosenkov,  T. Kowalczyk,  C. M. Krauter,  
 K. U. Lao,  A. Laurent,  K. V. Lawler,  S. Lehtola,  S. V. Levchenko,  
 C. Y. Lin,  Y.-S. Lin,  F. Liu,  E. Livshits,  R. C. Lochan,  A. Luenser,  
 P. Manohar,  S. F. Manzer,  S.-P. Mao,  N. Mardirossian,  A. V. Marenich,  
 L. A. Martinez-Martinez,  S. A. Maurer,  N. J. Mayhall,  K. Nanda,  
 C. M. Oana,  R. Olivares-Amaya,  D. P. O'Neill,  J. A. Parkhill,  
 T. M. Perrine,  R. Peverati,  P. A. Pieniazek,  F. Plasser,  A. Prociuk,  
 D. R. Rehn,  E. Rosta,  N. J. Russ,  N. Sergueev,  S. M. Sharada,  
 S. Sharma,  D. W. Small,  A. Sodt,  T. Stauch,  T. Stein,  D. Stuck,  
 Y.-C. Su,  A. J. W. Thom,  T. Tsuchimochi,  L. Vogt,  O. Vydrov,  T. Wang,  
 M. A. Watson,  J. Wenzel,  A. White,  C. F. Williams,  V. Vanovschi,  
 S. Yeganeh,  S. R. Yost,  Z.-Q. You,  I. Y. Zhang,  X. Zhang,  Y. Zhao,  
 B. R. Brooks,  G. K. L. Chan,  D. M. Chipman,  C. J. Cramer,  
 W. A. Goddard III,  M. S. Gordon,  W. J. Hehre,  A. Klamt,  
 H. F. Schaefer III,  M. W. Schmidt,  C. D. Sherrill,  D. G. Truhlar,  
 A. Warshel,  X. Xu,  A. Aspuru-Guzik,  R. Baer,  A. T. Bell,  N. A. Besley,  
 J.-D. Chai,  A. Dreuw,  B. D. Dunietz,  T. R. Furlani,  S. R. Gwaltney,  
 C.-P. Hsu,  Y. Jung,  J. Kong,  D. S. Lambrecht,  W. Liang,  C. Ochsenfeld,  
 V. A. Rassolov,  L. V. Slipchenko,  J. E. Subotnik,  T. Van Voorhis,  
 J. M. Herbert,  A. I. Krylov,  P. M. W. Gill,  M. Head-Gordon

 Contributors to earlier versions of Q-Chem not listed above: 
 R. D. Adamson,  J. Baker,  E. F. C. Byrd,  A. K. Chakraborty,  C.-L. Cheng,  
 H. Dachsel,  R. J. Doerksen,  G. Hawkins,  A. Heyden,  S. Hirata,  
 G. Kedziora,  F. J. Keil,  C. Kelley,  P. P. Korambath,  W. Kurlancheek,  
 A. M. Lee,  M. S. Lee,  D. Liotard,  I. Lotan,  P. E. Maslen,  N. Nair,  
 D. Neuhauser,  R. Olson,  B. Peters,  J. Ritchie,  N. E. Schultz,  
 N. Shenvi,  A. C. Simmonett,  K. S. Thanthiriwatte,  Q. Wu,  W. Zhang

 Please cite Q-Chem as follows:
 Y. Shao et al., Mol. Phys. 113, 184-215 (2014)
 DOI: 10.1080/00268976.2014.952696

 Q-Chem 4.3.0 for Intel X86 EM64T Linux

 Parts of Q-Chem use Armadillo 4.550.3 (Singapore Sling Deluxe).
 http://arma.sourceforge.net/

 Q-Chem begins on Mon Mar 30 09:22:10 2015  

Host: n58
0

     Scratch files written to /home/dlambrecht/bja39/scratch/6.omegab97x-d_opt.cb42ac9600684c8897b316270511bf05//
 Mar1615 |home|dlambrecht|erb74|opt|apps|qchem|trunk_RNUM -1

Checking the input file for inconsistencies...	...done.

--------------------------------------------------------------
User input:
--------------------------------------------------------------
$molecule
0 2
  C -3.77578000 1.41262000 -0.21447000
  O -2.58788000 2.06725000 -0.31292000
  O -4.74823000 1.86911000 -0.79440000
  C -3.94794000 0.18513000 0.64310000
  Si -5.09683000 0.52472000 2.08857000
  H -6.44891000 0.92942000 1.68661000
  H -4.52084000 1.59870000 2.91141000
  H -5.20411000 -0.69259000 2.90604000
  H -2.97500000 -0.09451000 1.10097000
  C -1.91298000 2.29507000 -1.49424000
  H -0.96024000 2.81679000 -1.26960000
  H -2.50277000 2.93872000 -2.17280000
  H -1.67976000 1.33066000 -1.99391000
$end

$rem
    jobtype                     opt
    exchange                    omegaB97X-D
    basis                       6-31G**
    unrestricted                true
    geom_opt_tol_gradient       30
    geom_opt_tol_displacement   120
    geom_opt_tol_energy         10
    geom_opt_max_cycles         300
    scf_max_cycles              300
    scf_algorithm               diis_gdm
$end
--------------------------------------------------------------
 ----------------------------------------------------------------
             Standard Nuclear Orientation (Angstroms)
    I     Atom           X                Y                Z
 ----------------------------------------------------------------
    1      C       0.4672636028    -0.2359307361     0.1564767252
    2      O       1.4936815981     0.4574546458    -0.4047915354
    3      O       0.4759263579    -1.4549138641     0.0904008772
    4      C      -0.7135984301     0.4515125700     0.7927028098
    5      Si     -2.2864781271     0.1371980224    -0.1829554015
    6      H      -2.6488236347    -1.2815726527    -0.2792350073
    7      H      -2.1130472850     0.6610876683    -1.5459391021
    8      H      -3.3965758080     0.8535315469     0.4621486645
    9      H      -0.5676122267     1.5526473926     0.7672894085
   10      C       2.8169627009     0.3378347057    -0.0339450741
   11      H       3.4242809440     1.0462116103    -0.6337242905
   12      H       3.1944449232    -0.6834019359    -0.2267250884
   13      H       2.9373959770     0.5898985660     1.0412795358
 ----------------------------------------------------------------
 Molecular Point Group                 C1    NOp =  1
 Largest Abelian Subgroup              C1    NOp =  1
 Nuclear Repulsion Energy =   282.6825535247 hartrees
 There are       28 alpha and       27 beta electrons
 Requested basis set is 6-31G(d,p)
 There are 46 shells and 129 basis functions

Total QAlloc Memory Limit   2000 MB
Mega-Array Size        61 MB
MEM_STATIC part        62 MB
 A cutoff of  1.0D-12 yielded    940 shell pairs
 There are      7769 function pairs
 
 -------------------------------------------------------
 OpenMP Integral Computing Module                       
 Release: version 1.0, May 2013, Q-Chem Inc. Pittsburgh 
 -------------------------------------------------------
 Integral Job Info:
 Integral job number is                      11
 Integral operator is                         1
 short-range coefficients              22203600
 long-range coefficients              100000000
 Omega coefficients                         200
 if combine SR and LR in K              -999999
 Integral screening is                        0
 Integral computing path is                   2
 max size of driver memory is            800000
 size of driver memory is                593474
 size of scratch memory is             15166112
 max col of scratch BK array               1296
 max len of scratch array in speh3          155
 max len of scratch index in speh4           18
 max int batch size is                      520
 min int batch size is                       52
 fixed nKL is                                52
 max L of basis functions is                  2
 order of int derivative is                   0
 number of shells is                         46
 number of basis is                         129
 number of cartesian basis is               129
 number of contracted shell pairs           940
 number of primitive shell pairs           3439
 maxK2 (contraction) of shell pair           36
 max number of K2 of shell pair               1
 max number of CS2 of shell pair             89
 max number of PS2 of shell pair            372
 mem total for path MDJ                   25576
 -------------------------------------------------------
 Smallest overlap matrix eigenvalue = 4.27E-03

  Scale SEOQF with 1.000000e-01/1.000000e-01/1.000000e-01

 Standard Electronic Orientation quadrupole field applied
 Nucleus-field energy     =     0.0000000080 hartrees
 Guess from superposition of atomic densities
 Warning:  Energy on first SCF cycle will be non-variational
 Long-range K will be added via erf
 Coulomb attenuation parameter = 0.2 bohr**(-1)
 An unrestricted hybrid HF-DFT SCF calculation will be
 performed using Pulay DIIS + Geometric Direct Minimization
 Exchange:     0.2220 Hartree-Fock + 1.0000 wB97X-D + LR-HF
 Correlation:  1.0000 wB97X-D
 Using SG-1 standard quadrature grid
 SCF converges when RMS gradient is below 1.0E-08
 using 12 threads for integral computing 
 using 12 threads for integral computing 
 using 12 threads for integral computing 
 -------------------------------------------------------
 OpenMP BLAS3 based DFT computing Module                
 Release: version 1.0, May 2013, Q-Chem Inc. Pittsburgh 
 -------------------------------------------------------
 ---------------------------------------
  Cycle       Energy         DIIS Error
 ---------------------------------------
    1    -559.2417873568      5.93E-02
    2    -558.1432159620      8.36E-03 Done DIIS. Switching to GDM
    3    -558.0467150397      4.14E-01 Descent step
    4    -558.2618326333      5.33E-02 Normal BFGS step
    5    -558.2714561305      1.67E-02 Normal BFGS step
    6    -558.2740385172      1.35E-02 Normal BFGS step
    7    -558.2746598678      3.86E-03 Normal BFGS step
    8    -558.2747376761      2.26E-03 Normal BFGS step
    9    -558.2747776101      1.09E-03 Normal BFGS step
   10    -558.2747868154      5.28E-04 Normal BFGS step
   11    -558.2747884036      2.57E-04 Normal BFGS step
   12    -558.2747888202      7.78E-05 Normal BFGS step
   13    -558.2747888625      2.40E-05 Normal BFGS step
   14    -558.2747888682      1.36E-05 Normal BFGS step
   15    -558.2747888692      7.59E-06 Normal BFGS step
   16    -558.2747888694      5.01E-06 Normal BFGS step
   17    -558.2747888695      2.47E-06 Normal BFGS step
   18    -558.2747888695      8.64E-07 Normal BFGS step
   19    -558.2747888695      3.14E-07 Normal BFGS step
   GDM::WARNING energy changes are now smaller than effective accuracy.
   GDM::        calculation will continue, but THRESH should be increased
   GDM::        or SCF_CONVERGENCE decreased.
   GDM::        effective_thresh =   4.887994176083765E-010
   20    -558.2747888695      1.31E-07 Normal BFGS step
   21    -558.2747888695      6.91E-08 Normal BFGS step
   GDM::WARNING energy changes are now smaller than effective accuracy.
   GDM::        calculation will continue, but THRESH should be increased
   GDM::        or SCF_CONVERGENCE decreased.
   GDM::        effective_thresh =   4.887994176083765E-010
   22    -558.2747888695      2.20E-08 Normal BFGS step
   23    -558.2747888695      1.06E-08 Normal BFGS step
   GDM::WARNING energy changes are now smaller than effective accuracy.
   GDM::        calculation will continue, but THRESH should be increased
   GDM::        or SCF_CONVERGENCE decreased.
   GDM::        effective_thresh =   4.887994176083765E-010
   24    -558.2747888695      5.97E-09 Convergence criterion met
 ---------------------------------------
 <S^2> = 0.7609
 SCF time:  CPU 224.47 s  wall 28.16 s
 SCF   energy in the final basis set = -558.2747888695
 Total energy in the final basis set = -558.2747888695
 Analysis of SCF Wavefunction
 
 --------------------------------------------------------------
 
                    Orbital Energies (a.u.)
 --------------------------------------------------------------
 
 Alpha MOs
 -- Occupied --
-66.282 -19.306 -19.270 -10.444 -10.362 -10.350  -5.401  -3.745
 -3.745  -3.744  -1.208  -1.123  -0.866  -0.809  -0.668  -0.631
 -0.590  -0.576  -0.565  -0.516  -0.496  -0.461  -0.435  -0.427
 -0.422  -0.381  -0.361  -0.354
 -- Virtual --
  0.070   0.108   0.146   0.150   0.188   0.190   0.217   0.225
  0.236   0.249   0.290   0.298   0.325   0.336   0.409   0.424
  0.451   0.569   0.589   0.610   0.616   0.622   0.646   0.693
  0.719   0.746   0.759   0.785   0.824   0.870   0.900   0.904
  0.907   0.940   0.957   0.988   1.012   1.049   1.085   1.144
  1.178   1.188   1.202   1.228   1.276   1.321   1.393   1.438
  1.476   1.505   1.583   1.684   1.740   1.770   1.861   1.906
  1.909   1.949   1.989   2.033   2.062   2.066   2.092   2.108
  2.121   2.132   2.164   2.172   2.178   2.209   2.295   2.321
  2.334   2.365   2.431   2.468   2.547   2.577   2.601   2.630
  2.682   2.700   2.768   2.847   2.893   2.895   2.923   2.937
  3.047   3.091   3.163   3.199   3.230   3.407   3.481   3.490
  4.001   4.215   4.288   4.499   4.572
 
 Beta MOs
 -- Occupied --
-66.282 -19.306 -19.266 -10.445 -10.362 -10.339  -5.401  -3.745
 -3.745  -3.745  -1.207  -1.117  -0.852  -0.794  -0.665  -0.627
 -0.580  -0.574  -0.562  -0.512  -0.487  -0.444  -0.433  -0.421
 -0.408  -0.375  -0.353
 -- Virtual --
 -0.066   0.086   0.112   0.147   0.161   0.190   0.197   0.221
  0.228   0.236   0.250   0.294   0.300   0.327   0.345   0.413
  0.427   0.456   0.571   0.601   0.614   0.627   0.631   0.661
  0.698   0.722   0.747   0.761   0.787   0.837   0.874   0.902
  0.907   0.913   0.947   0.960   0.988   1.019   1.051   1.093
  1.148   1.181   1.194   1.208   1.230   1.281   1.323   1.397
  1.441   1.486   1.507   1.599   1.693   1.747   1.785   1.871
  1.914   1.919   1.957   1.997   2.049   2.068   2.079   2.095
  2.110   2.129   2.137   2.167   2.178   2.184   2.223   2.299
  2.324   2.336   2.373   2.436   2.481   2.553   2.590   2.606
  2.633   2.688   2.701   2.769   2.852   2.894   2.898   2.924
  2.939   3.050   3.094   3.164   3.200   3.230   3.421   3.481
  3.490   4.006   4.236   4.291   4.508   4.589
 --------------------------------------------------------------
 
          Ground-State Mulliken Net Atomic Charges

     Atom                 Charge (a.u.)    Spin (a.u.)
  --------------------------------------------------------
      1 C                     0.543319      -0.100486
      2 O                    -0.466975      -0.003196
      3 O                    -0.412676       0.173282
      4 C                    -0.321276       0.939331
      5 Si                    0.473103      -0.032578
      6 H                    -0.076005       0.004433
      7 H                    -0.080287       0.047308
      8 H                    -0.098329       0.000727
      9 H                     0.152594      -0.029515
     10 C                    -0.125161       0.001378
     11 H                     0.145454      -0.000111
     12 H                     0.142517       0.000569
     13 H                     0.123723      -0.001142
  --------------------------------------------------------
  Sum of atomic charges =     0.000000
  Sum of spin   charges =     1.000000

 -----------------------------------------------------------------
                    Cartesian Multipole Moments
 -----------------------------------------------------------------
    Charge (ESU x 10^10)
                -0.0000
    Dipole Moment (Debye)
         X       0.8691      Y       2.3246      Z       0.4813
       Tot       2.5280
    Quadrupole Moments (Debye-Ang)
        XX     -36.8599     XY       1.0282     YY     -47.1752
        XZ       1.2823     YZ       0.7711     ZZ     -43.9544
    Octopole Moments (Debye-Ang^2)
       XXX      42.1606    XXY       0.5612    XYY       4.9847
       YYY       4.7562    XXZ      -2.6554    XYZ       0.1995
       YYZ      -0.3222    XZZ       6.6689    YZZ      -1.7414
       ZZZ      -1.0296
    Hexadecapole Moments (Debye-Ang^3)
      XXXX    -959.5142   XXXY      18.9317   XXYY    -199.4650
      XYYY       2.6013   YYYY    -175.8881   XXXZ      -1.5605
      XXYZ      -2.9215   XYYZ      -2.8128   YYYZ       0.3621
      XXZZ    -185.2572   XYZZ       2.9265   YYZZ     -45.0540
      XZZZ      -1.6058   YZZZ      -1.3038   ZZZZ    -102.5235
 -----------------------------------------------------------------
 Calculating analytic gradient of the SCF energy
 Gradient of SCF Energy
            1           2           3           4           5           6
    1  -0.0053168   0.0432281   0.0003405  -0.0240721   0.0080322  -0.0000847
    2   0.0339869  -0.0347421  -0.0043254  -0.0269922   0.0114918   0.0050464
    3  -0.0109200   0.0041509  -0.0047580   0.0543290  -0.0142384   0.0001148
            7           8           9          10          11          12
    1  -0.0044078   0.0036623  -0.0021582  -0.0283225   0.0099792   0.0011125
    2  -0.0039255  -0.0043276   0.0080018   0.0114550   0.0063032  -0.0049300
    3   0.0045987  -0.0016881  -0.0188250  -0.0124993  -0.0046908  -0.0038625
           13
    1  -0.0019927
    2   0.0029577
    3   0.0082886
 Max gradient component =       5.433E-02
 RMS gradient           =       1.680E-02
 Gradient time:  CPU 27.56 s  wall 3.69 s
 Geometry Optimization Parameters
   NAtoms,    NIC,     NZ,  NCons,   NDum,   NFix, NCnnct, MaxDiis
       13      72       0       0       0       0       0       0


** GEOMETRY OPTIMIZATION IN DELOCALIZED INTERNAL COORDINATES **
   Searching for a Minimum

   Optimization Cycle:   1

                       Coordinates (Angstroms)
     ATOM                X               Y               Z
      1  C         0.4672636028   -0.2359307361    0.1564767252
      2  O         1.4936815981    0.4574546458   -0.4047915354
      3  O         0.4759263579   -1.4549138641    0.0904008772
      4  C        -0.7135984301    0.4515125700    0.7927028098
      5  Si       -2.2864781271    0.1371980224   -0.1829554015
      6  H        -2.6488236347   -1.2815726527   -0.2792350073
      7  H        -2.1130472850    0.6610876683   -1.5459391021
      8  H        -3.3965758080    0.8535315469    0.4621486645
      9  H        -0.5676122267    1.5526473926    0.7672894085
     10  C         2.8169627009    0.3378347057   -0.0339450741
     11  H         3.4242809440    1.0462116103   -0.6337242905
     12  H         3.1944449232   -0.6834019359   -0.2267250884
     13  H         2.9373959770    0.5898985660    1.0412795358
   Point Group: c1    Number of degrees of freedom:    33


   Energy is   -558.274788870


 Attempting to Generate Delocalized Internal Coordinates

 33 Hessian modes will be used to form the next step
  Hessian Eigenvalues:
     0.004061    0.008220    0.012577    0.018362    0.020949    0.033574
     0.068308    0.074067    0.103039    0.105782    0.112642    0.160000
     0.160000    0.160000    0.160000    0.160000    0.160000    0.182304
     0.182412    0.183771    0.208579    0.236483    0.249847    0.250000
     0.250000    0.316286    0.324880    0.325026    0.326828    0.330591
     0.492012    0.529669    0.950282

 Minimum Search - Taking Simple RFO Step
 Searching for Lamda that Minimizes Along All modes
 Value Taken    Lamda =  -0.02758255
 Calculated Step too Large.  Step scaled by  0.575762
 Step Taken.  Stepsize is  0.300000

                             Maximum     Tolerance    Cnvgd?
         Gradient           0.034189      0.000030      NO
         Displacement       0.190069      0.000120      NO
         Energy change     *********      0.000000      NO


 New Cartesian Coordinates Obtained by Inverse Iteration

 Displacement from previous Coordinates is:  0.510077
 ----------------------------------------------------------------
             Standard Nuclear Orientation (Angstroms)
    I     Atom           X                Y                Z
 ----------------------------------------------------------------
    1      C       0.4869402098    -0.2237524095     0.0890051550
    2      O       1.5023942711     0.5107091218    -0.4218917829
    3      O       0.5081219901    -1.4421950788     0.0461956557
    4      C      -0.6788413522     0.4926673396     0.6770433939
    5      Si     -2.3146351533     0.1234026698    -0.1714983393
    6      H      -2.6550226142    -1.3107299047    -0.2102724226
    7      H      -2.2092630272     0.6250848608    -1.5592547157
    8      H      -3.3955609923     0.8563122761     0.5214038157
    9      H      -0.5173790752     1.5841757065     0.7154497716
   10      C       2.8172460922     0.3292185888     0.0010539704
   11      H       3.4436275550     1.0517754362    -0.5403540121
   12      H       3.1814018583    -0.6842498422    -0.2276871093
   13      H       2.9147908302     0.5191387746     1.0837891412
 ----------------------------------------------------------------
 Molecular Point Group                 C1    NOp =  1
 Largest Abelian Subgroup              C1    NOp =  1
 Nuclear Repulsion Energy =   282.5154837423 hartrees
 There are       28 alpha and       27 beta electrons
 Applying Cartesian multipole field
    Component          Value
    ---------          -----
     (2,0,0)        1.00000E-11
     (0,2,0)        2.00000E-11
     (0,0,2)       -3.00000E-11
 Nucleus-field energy     =     0.0000000082 hartrees
 Requested basis set is 6-31G(d,p)
 There are 46 shells and 129 basis functions
 A cutoff of  1.0D-12 yielded    939 shell pairs
 There are      7757 function pairs
 Smallest overlap matrix eigenvalue = 3.96E-03
 Guess MOs from SCF MO coefficient file
 Reading MOs from coefficient file
 Reading MOs from coefficient file
 Long-range K will be added via erf
 Coulomb attenuation parameter = 0.2 bohr**(-1)
 An unrestricted hybrid HF-DFT SCF calculation will be
 performed using Pulay DIIS + Geometric Direct Minimization
 Exchange:     0.2220 Hartree-Fock + 1.0000 wB97X-D + LR-HF
 Correlation:  1.0000 wB97X-D
 Using SG-1 standard quadrature grid
 SCF converges when RMS gradient is below 1.0E-08
Geometry optimization detected.  Setting ReadMinima to 0
Setting SaveMinima to 0
 using 12 threads for integral computing 
 using 12 threads for integral computing 
 using 12 threads for integral computing 
 -------------------------------------------------------
 OpenMP BLAS3 based DFT computing Module                
 Release: version 1.0, May 2013, Q-Chem Inc. Pittsburgh 
 -------------------------------------------------------
 ---------------------------------------
  Cycle       Energy        RMS Gradient
 ---------------------------------------
    1    -558.3009461827      2.29E-03 Done DIIS. Switching to GDM
    2    -558.2875541033      6.08E-03 Normal BFGS step
    3    -558.2879808128      2.06E-03 Normal BFGS step
    4    -558.2880670880      7.77E-04 Normal BFGS step
    5    -558.2880769804      5.61E-04 Normal BFGS step
    6    -558.2880797142      3.55E-04 Normal BFGS step
    7    -558.2880802403      2.19E-04 Normal BFGS step
    8    -558.2880803970      1.58E-04 Normal BFGS step
    9    -558.2880804784      6.78E-05 Normal BFGS step
   10    -558.2880804990      3.25E-05 Normal BFGS step
   11    -558.2880805047      1.18E-05 Normal BFGS step
   12    -558.2880805055      4.33E-06 Normal BFGS step
   13    -558.2880805057      2.03E-06 Normal BFGS step
   14    -558.2880805057      8.11E-07 Normal BFGS step
   15    -558.2880805057      3.82E-07 Normal BFGS step
   GDM::WARNING energy changes are now smaller than effective accuracy.
   GDM::        calculation will continue, but THRESH should be increased
   GDM::        or SCF_CONVERGENCE decreased.
   GDM::        effective_thresh =   5.863387719795554E-009
   16    -558.2880805057      1.78E-07 Normal BFGS step
   GDM::WARNING energy changes are now smaller than effective accuracy.
   GDM::        calculation will continue, but THRESH should be increased
   GDM::        or SCF_CONVERGENCE decreased.
   GDM::        effective_thresh =   5.863387719795554E-009
   17    -558.2880805057      5.63E-08 Normal BFGS step
   18    -558.2880805057      2.29E-08 Normal BFGS step
   19    -558.2880805057      1.01E-08 Normal BFGS step
   GDM::WARNING energy changes are now smaller than effective accuracy.
   GDM::        calculation will continue, but THRESH should be increased
   GDM::        or SCF_CONVERGENCE decreased.
   GDM::        effective_thresh =   5.863387719795554E-009
   20    -558.2880805057      4.53E-09 Convergence criterion met
 ---------------------------------------
 <S^2> = 0.7607
 SCF time:  CPU 208.77 s  wall 21.85 s
 SCF   energy in the final basis set = -558.2880805057
 Total energy in the final basis set = -558.2880805057
 Analysis of SCF Wavefunction
 
 --------------------------------------------------------------
 
                    Orbital Energies (a.u.)
 --------------------------------------------------------------
 
 Alpha MOs
 -- Occupied --
-66.283 -19.307 -19.270 -10.440 -10.359 -10.344  -5.401  -3.746
 -3.745  -3.745  -1.208  -1.124  -0.868  -0.806  -0.668  -0.630
 -0.591  -0.576  -0.564  -0.517  -0.496  -0.457  -0.439  -0.430
 -0.425  -0.380  -0.362  -0.349
 -- Virtual --
  0.075   0.108   0.144   0.150   0.191   0.195   0.215   0.227
  0.237   0.252   0.289   0.300   0.325   0.343   0.401   0.425
  0.457   0.577   0.591   0.605   0.621   0.633   0.654   0.687
  0.729   0.745   0.759   0.783   0.831   0.876   0.903   0.907
  0.911   0.942   0.955   0.994   1.017   1.049   1.087   1.142
  1.161   1.181   1.188   1.230   1.263   1.296   1.395   1.434
  1.479   1.506   1.592   1.676   1.752   1.800   1.864   1.905
  1.924   1.950   1.973   2.039   2.056   2.067   2.080   2.110
  2.130   2.138   2.166   2.171   2.179   2.217   2.289   2.319
  2.328   2.370   2.450   2.486   2.551   2.591   2.611   2.622
  2.686   2.714   2.775   2.861   2.883   2.895   2.928   2.937
  3.051   3.095   3.162   3.208   3.249   3.423   3.491   3.506
  4.020   4.218   4.312   4.501   4.574
 
 Beta MOs
 -- Occupied --
-66.283 -19.307 -19.266 -10.441 -10.359 -10.333  -5.401  -3.746
 -3.745  -3.745  -1.207  -1.117  -0.853  -0.790  -0.666  -0.626
 -0.581  -0.573  -0.561  -0.513  -0.486  -0.441  -0.436  -0.425
 -0.411  -0.375  -0.355
 -- Virtual --
 -0.061   0.092   0.112   0.145   0.162   0.192   0.202   0.218
  0.230   0.237   0.253   0.293   0.301   0.327   0.351   0.405
  0.426   0.462   0.579   0.605   0.609   0.627   0.642   0.669
  0.695   0.733   0.747   0.762   0.785   0.841   0.880   0.905
  0.910   0.917   0.948   0.958   0.994   1.024   1.052   1.095
  1.146   1.167   1.185   1.193   1.232   1.268   1.298   1.399
  1.437   1.491   1.509   1.604   1.685   1.759   1.817   1.875
  1.913   1.935   1.958   1.981   2.046   2.070   2.071   2.090
  2.111   2.139   2.144   2.168   2.177   2.186   2.227   2.292
  2.323   2.330   2.379   2.455   2.498   2.561   2.599   2.618
  2.628   2.690   2.715   2.775   2.866   2.883   2.898   2.928
  2.940   3.054   3.098   3.163   3.210   3.249   3.436   3.491
  3.506   4.024   4.240   4.317   4.509   4.589
 --------------------------------------------------------------
 
          Ground-State Mulliken Net Atomic Charges

     Atom                 Charge (a.u.)    Spin (a.u.)
  --------------------------------------------------------
      1 C                     0.556885      -0.099077
      2 O                    -0.469668      -0.003778
      3 O                    -0.424123       0.177860
      4 C                    -0.325867       0.938084
      5 Si                    0.474503      -0.038895
      6 H                    -0.075887       0.005849
      7 H                    -0.082877       0.046993
      8 H                    -0.098994       0.002026
      9 H                     0.156665      -0.030772
     10 C                    -0.131367       0.002522
     11 H                     0.146930      -0.000204
     12 H                     0.146585       0.000289
     13 H                     0.127215      -0.000896
  --------------------------------------------------------
  Sum of atomic charges =    -0.000000
  Sum of spin   charges =     1.000000

 -----------------------------------------------------------------
                    Cartesian Multipole Moments
 -----------------------------------------------------------------
    Charge (ESU x 10^10)
                -0.0000
    Dipole Moment (Debye)
         X       0.8320      Y       2.2232      Z       0.5703
       Tot       2.4414
    Quadrupole Moments (Debye-Ang)
        XX     -36.5610     XY       1.0977     YY     -47.1116
        XZ       1.3695     YZ       0.8221     ZZ     -43.9556
    Octopole Moments (Debye-Ang^2)
       XXX      41.9530    XXY      -0.2247    XYY       4.7281
       YYY       3.8489    XXZ      -0.9571    XYZ       0.2840
       YYZ       0.7522    XZZ       6.7634    YZZ      -2.1897
       ZZZ       1.8359
    Hexadecapole Moments (Debye-Ang^3)
      XXXX    -965.3729   XXXY      18.2783   XXYY    -201.6580
      XYYY       1.8266   YYYY    -176.2728   XXXZ      -1.4662
      XXYZ      -2.4782   XYYZ      -3.1809   YYYZ      -0.3631
      XXZZ    -187.3983   XYZZ       2.3863   YYZZ     -44.2745
      XZZZ      -3.6836   YZZZ      -1.7468   ZZZZ     -96.2285
 -----------------------------------------------------------------
 Calculating analytic gradient of the SCF energy
 Gradient of SCF Energy
            1           2           3           4           5           6
    1  -0.0000694   0.0252825  -0.0017831  -0.0118611   0.0041575  -0.0007271
    2   0.0233829  -0.0260837  -0.0040742  -0.0179541   0.0069681   0.0022480
    3  -0.0110620   0.0002261  -0.0026608   0.0413439  -0.0113036  -0.0003367
            7           8           9          10          11          12
    1  -0.0019489   0.0015692  -0.0016627  -0.0202649   0.0052713   0.0016358
    2  -0.0019775  -0.0022545   0.0068826   0.0109552   0.0030173  -0.0025784
    3   0.0026380  -0.0006586  -0.0133127  -0.0056317  -0.0014127  -0.0021385
           13
    1   0.0004010
    2   0.0014682
    3   0.0043095
 Max gradient component =       4.134E-02
 RMS gradient           =       1.163E-02
 Gradient time:  CPU 20.38 s  wall 1.71 s
 Geometry Optimization Parameters
   NAtoms,    NIC,     NZ,  NCons,   NDum,   NFix, NCnnct, MaxDiis
       13      72       0       0       0       0       0       0

 Cartesian Hessian Update
 Hessian Updated using BFGS Update


** GEOMETRY OPTIMIZATION IN DELOCALIZED INTERNAL COORDINATES **
   Searching for a Minimum

   Optimization Cycle:   2

                       Coordinates (Angstroms)
     ATOM                X               Y               Z
      1  C         0.4869402098   -0.2237524095    0.0890051550
      2  O         1.5023942711    0.5107091218   -0.4218917829
      3  O         0.5081219901   -1.4421950788    0.0461956557
      4  C        -0.6788413522    0.4926673396    0.6770433939
      5  Si       -2.3146351533    0.1234026698   -0.1714983393
      6  H        -2.6550226142   -1.3107299047   -0.2102724226
      7  H        -2.2092630272    0.6250848608   -1.5592547157
      8  H        -3.3955609923    0.8563122761    0.5214038157
      9  H        -0.5173790752    1.5841757065    0.7154497716
     10  C         2.8172460922    0.3292185888    0.0010539704
     11  H         3.4436275550    1.0517754362   -0.5403540121
     12  H         3.1814018583   -0.6842498422   -0.2276871093
     13  H         2.9147908302    0.5191387746    1.0837891412
   Point Group: c1    Number of degrees of freedom:    33


   Energy is   -558.288080506

 Hessian Updated using BFGS Update

 29 Hessian modes will be used to form the next step
  Hessian Eigenvalues:
     0.004058    0.008064    0.012704    0.016463    0.018413    0.036031
     0.068552    0.074360    0.103236    0.105801    0.109362    0.157528
     0.165609    0.182220    0.182897    0.185104    0.206218    0.215293
     0.240747    0.249920    0.265840    0.312028    0.323618    0.325336
     0.329965    0.330684    0.482177    0.536816    0.949520

 Minimum Search - Taking Simple RFO Step
 Searching for Lamda that Minimizes Along All modes
 Value Taken    Lamda =  -0.02165449
 Calculated Step too Large.  Step scaled by  0.460189
 Step Taken.  Stepsize is  0.300000

                             Maximum     Tolerance    Cnvgd?
         Gradient           0.024750      0.000030      NO
         Displacement       0.179147      0.000120      NO
         Energy change     -0.013292      0.000000      NO


 New Cartesian Coordinates Obtained by Inverse Iteration

 Displacement from previous Coordinates is:  0.582302
 ----------------------------------------------------------------
             Standard Nuclear Orientation (Angstroms)
    I     Atom           X                Y                Z
 ----------------------------------------------------------------
    1      C       0.5031821651    -0.1716677486     0.0743524808
    2      O       1.5097035804     0.6042473050    -0.3852890966
    3      O       0.5509201265    -1.3873383282     0.0312578572
    4      C      -0.6746376793     0.5484131787     0.5920265998
    5      Si     -2.3326536459     0.1053835390    -0.1677279115
    6      H      -2.6249240633    -1.3422411017    -0.1323346265
    7      H      -2.2801310669     0.5580357262    -1.5812218546
    8      H      -3.4074416131     0.8458846831     0.5350885840
    9      H      -0.5097859117     1.6301363617     0.6617762303
   10      C       2.8228611358     0.3075625809     0.0196512483
   11      H       3.4761343490     1.0503701528    -0.4455259263
   12      H       3.1310212137    -0.6921349009    -0.3110801339
   13      H       2.9195720020     0.3749060909     1.1120090708
 ----------------------------------------------------------------
 Molecular Point Group                 C1    NOp =  1
 Largest Abelian Subgroup              C1    NOp =  1
 Nuclear Repulsion Energy =   282.7422780767 hartrees
 There are       28 alpha and       27 beta electrons
 Applying Cartesian multipole field
    Component          Value
    ---------          -----
     (2,0,0)        1.00000E-11
     (0,2,0)        2.00000E-11
     (0,0,2)       -3.00000E-11
 Nucleus-field energy     =     0.0000000084 hartrees
 Requested basis set is 6-31G(d,p)
 There are 46 shells and 129 basis functions
 A cutoff of  1.0D-12 yielded    940 shell pairs
 There are      7781 function pairs
 Smallest overlap matrix eigenvalue = 3.70E-03
 Guess MOs from SCF MO coefficient file
 Reading MOs from coefficient file
 Reading MOs from coefficient file
 Long-range K will be added via erf
 Coulomb attenuation parameter = 0.2 bohr**(-1)
 An unrestricted hybrid HF-DFT SCF calculation will be
 performed using Pulay DIIS + Geometric Direct Minimization
 Exchange:     0.2220 Hartree-Fock + 1.0000 wB97X-D + LR-HF
 Correlation:  1.0000 wB97X-D
 Using SG-1 standard quadrature grid
 SCF converges when RMS gradient is below 1.0E-08
Geometry optimization detected.  Setting ReadMinima to 0
Setting SaveMinima to 0
 using 12 threads for integral computing 
 using 12 threads for integral computing 
 using 12 threads for integral computing 
 -------------------------------------------------------
 OpenMP BLAS3 based DFT computing Module                
 Release: version 1.0, May 2013, Q-Chem Inc. Pittsburgh 
 -------------------------------------------------------
 ---------------------------------------
  Cycle       Energy        RMS Gradient
 ---------------------------------------
    1    -558.2967284860      2.58E-03 Done DIIS. Switching to GDM
    2    -558.2963409418      4.99E-03 Normal BFGS step
    3    -558.2968671182      2.30E-03 Normal BFGS step
    4    -558.2969542385      1.28E-03 Normal BFGS step
    5    -558.2969751094      6.86E-04 Normal BFGS step
    6    -558.2969774010      4.61E-04 Normal BFGS step
    7    -558.2969788485      1.94E-04 Normal BFGS step
    8    -558.2969789436      1.01E-04 Normal BFGS step
    9    -558.2969790377      5.47E-05 Normal BFGS step
   10    -558.2969790484      2.35E-05 Normal BFGS step
   11    -558.2969790512      7.25E-06 Normal BFGS step
   12    -558.2969790514      3.88E-06 Normal BFGS step
   13    -558.2969790515      1.87E-06 Normal BFGS step
   14    -558.2969790515      1.03E-06 Normal BFGS step
   GDM::WARNING energy changes are now smaller than effective accuracy.
   GDM::        calculation will continue, but THRESH should be increased
   GDM::        or SCF_CONVERGENCE decreased.
   GDM::        effective_thresh =   2.015587023673771E-009
   15    -558.2969790515      4.46E-07 Normal BFGS step
   16    -558.2969790515      1.10E-07 Normal BFGS step
   GDM::WARNING energy changes are now smaller than effective accuracy.
   GDM::        calculation will continue, but THRESH should be increased
   GDM::        or SCF_CONVERGENCE decreased.
   GDM::        effective_thresh =   2.015587023673771E-009
   17    -558.2969790515      4.87E-08 Normal BFGS step
   GDM::WARNING energy changes are now smaller than effective accuracy.
   GDM::        calculation will continue, but THRESH should be increased
   GDM::        or SCF_CONVERGENCE decreased.
   GDM::        effective_thresh =   2.015587023673771E-009
   18    -558.2969790515      1.59E-08 Normal BFGS step
   GDM::WARNING energy changes are now smaller than effective accuracy.
   GDM::        calculation will continue, but THRESH should be increased
   GDM::        or SCF_CONVERGENCE decreased.
   GDM::        effective_thresh =   2.015587023673771E-009
   19    -558.2969790515      4.29E-09 Convergence criterion met
 ---------------------------------------
 <S^2> = 0.7602
 SCF time:  CPU 151.80 s  wall 15.41 s
 SCF   energy in the final basis set = -558.2969790515
 Total energy in the final basis set = -558.2969790515
 Analysis of SCF Wavefunction
 
 --------------------------------------------------------------
 
                    Orbital Energies (a.u.)
 --------------------------------------------------------------
 
 Alpha MOs
 -- Occupied --
-66.284 -19.309 -19.269 -10.436 -10.356 -10.340  -5.401  -3.746
 -3.745  -3.745  -1.208  -1.123  -0.870  -0.803  -0.668  -0.628
 -0.591  -0.576  -0.562  -0.516  -0.496  -0.454  -0.443  -0.431
 -0.427  -0.380  -0.364  -0.346
 -- Virtual --
  0.081   0.108   0.143   0.152   0.193   0.199   0.212   0.229
  0.239   0.256   0.289   0.301   0.325   0.350   0.395   0.419
  0.465   0.585   0.594   0.602   0.623   0.644   0.659   0.690
  0.735   0.746   0.759   0.785   0.835   0.876   0.904   0.909
  0.915   0.944   0.956   0.999   1.024   1.053   1.089   1.131
  1.146   1.175   1.186   1.238   1.259   1.281   1.385   1.435
  1.474   1.511   1.609   1.666   1.752   1.822   1.866   1.904
  1.947   1.952   1.963   2.034   2.053   2.068   2.076   2.111
  2.142   2.144   2.164   2.173   2.184   2.222   2.285   2.318
  2.324   2.385   2.461   2.497   2.554   2.595   2.619   2.630
  2.686   2.721   2.776   2.862   2.878   2.893   2.932   2.944
  3.050   3.101   3.161   3.219   3.266   3.439   3.496   3.516
  4.033   4.222   4.325   4.502   4.577
 
 Beta MOs
 -- Occupied --
-66.284 -19.309 -19.265 -10.437 -10.356 -10.330  -5.402  -3.746
 -3.746  -3.745  -1.206  -1.116  -0.854  -0.787  -0.665  -0.625
 -0.582  -0.573  -0.559  -0.512  -0.486  -0.440  -0.438  -0.427
 -0.414  -0.375  -0.357
 -- Virtual --
 -0.058   0.096   0.112   0.143   0.164   0.194   0.206   0.215
  0.231   0.240   0.256   0.292   0.302   0.327   0.357   0.400
  0.420   0.470   0.588   0.603   0.613   0.626   0.650   0.672
  0.699   0.739   0.749   0.765   0.789   0.841   0.880   0.905
  0.912   0.923   0.950   0.960   0.999   1.030   1.057   1.097
  1.135   1.154   1.180   1.191   1.240   1.263   1.283   1.390
  1.437   1.487   1.514   1.618   1.674   1.762   1.837   1.879
  1.911   1.956   1.966   1.968   2.040   2.062   2.071   2.093
  2.112   2.143   2.159   2.168   2.177   2.193   2.230   2.289
  2.322   2.326   2.393   2.467   2.507   2.566   2.600   2.626
  2.636   2.689   2.724   2.776   2.866   2.879   2.897   2.932
  2.946   3.053   3.104   3.161   3.221   3.266   3.450   3.496
  3.516   4.036   4.243   4.332   4.510   4.590
 --------------------------------------------------------------
 
          Ground-State Mulliken Net Atomic Charges

     Atom                 Charge (a.u.)    Spin (a.u.)
  --------------------------------------------------------
      1 C                     0.569525      -0.096357
      2 O                    -0.472349      -0.003780
      3 O                    -0.436575       0.178640
      4 C                    -0.328299       0.936943
      5 Si                    0.474186      -0.042536
      6 H                    -0.075749       0.006995
      7 H                    -0.084300       0.046824
      8 H                    -0.099262       0.003038
      9 H                     0.160763      -0.032572
     10 C                    -0.135957       0.003630
     11 H                     0.146900      -0.000287
     12 H                     0.150663      -0.000144
     13 H                     0.130455      -0.000396
  --------------------------------------------------------
  Sum of atomic charges =     0.000000
  Sum of spin   charges =     1.000000

 -----------------------------------------------------------------
                    Cartesian Multipole Moments
 -----------------------------------------------------------------
    Charge (ESU x 10^10)
                -0.0000
    Dipole Moment (Debye)
         X       0.7599      Y       2.0706      Z       0.5838
       Tot       2.2816
    Quadrupole Moments (Debye-Ang)
        XX     -36.4148     XY       0.9703     YY     -46.9990
        XZ       1.2903     YZ       0.8625     ZZ     -43.8013
    Octopole Moments (Debye-Ang^2)
       XXX      41.4583    XXY      -1.5538    XYY       4.1571
       YYY       0.9182    XXZ      -0.2965    XYZ       0.3776
       YYZ       1.0161    XZZ       6.9411    YZZ      -3.1440
       ZZZ       2.8870
    Hexadecapole Moments (Debye-Ang^3)
      XXXX    -972.4339   XXXY      16.8610   XXYY    -203.4003
      XYYY      -0.2149   YYYY    -173.2892   XXXZ      -3.1749
      XXYZ      -1.8291   XYYZ      -3.9062   YYYZ      -0.3693
      XXZZ    -188.7406   XYZZ       1.3163   YYZZ     -43.4246
      XZZZ      -6.1989   YZZZ      -1.8480   ZZZZ     -91.2278
 -----------------------------------------------------------------
 Calculating analytic gradient of the SCF energy
 Gradient of SCF Energy
            1           2           3           4           5           6
    1   0.0022188   0.0125335  -0.0025152  -0.0046516   0.0020395  -0.0005105
    2   0.0155541  -0.0195484  -0.0008890  -0.0124217   0.0045492   0.0009079
    3  -0.0038709  -0.0063766  -0.0035378   0.0308471  -0.0088361  -0.0002904
            7           8           9          10          11          12
    1  -0.0005504   0.0005199  -0.0004913  -0.0125240   0.0023814   0.0008139
    2  -0.0007147  -0.0011110   0.0034216   0.0104050   0.0007159  -0.0012829
    3   0.0012815  -0.0000379  -0.0103748   0.0008012  -0.0004316  -0.0012729
           13
    1   0.0007360
    2   0.0004139
    3   0.0020992
 Max gradient component =       3.085E-02
 RMS gradient           =       8.003E-03
 Gradient time:  CPU 22.56 s  wall 1.91 s
 Geometry Optimization Parameters
   NAtoms,    NIC,     NZ,  NCons,   NDum,   NFix, NCnnct, MaxDiis
       13      72       0       0       0       0       0       0

 Cartesian Hessian Update
 Hessian Updated using BFGS Update


** GEOMETRY OPTIMIZATION IN DELOCALIZED INTERNAL COORDINATES **
   Searching for a Minimum

   Optimization Cycle:   3

                       Coordinates (Angstroms)
     ATOM                X               Y               Z
      1  C         0.5031821651   -0.1716677486    0.0743524808
      2  O         1.5097035804    0.6042473050   -0.3852890966
      3  O         0.5509201265   -1.3873383282    0.0312578572
      4  C        -0.6746376793    0.5484131787    0.5920265998
      5  Si       -2.3326536459    0.1053835390   -0.1677279115
      6  H        -2.6249240633   -1.3422411017   -0.1323346265
      7  H        -2.2801310669    0.5580357262   -1.5812218546
      8  H        -3.4074416131    0.8458846831    0.5350885840
      9  H        -0.5097859117    1.6301363617    0.6617762303
     10  C         2.8228611358    0.3075625809    0.0196512483
     11  H         3.4761343490    1.0503701528   -0.4455259263
     12  H         3.1310212137   -0.6921349009   -0.3110801339
     13  H         2.9195720020    0.3749060909    1.1120090708
   Point Group: c1    Number of degrees of freedom:    33


   Energy is   -558.296979051

 Hessian Updated using BFGS Update

 30 Hessian modes will be used to form the next step
  Hessian Eigenvalues:
     0.004045    0.006830    0.010426    0.014669    0.018530    0.037703
     0.068822    0.074434    0.103337    0.105805    0.111382    0.158961
     0.160780    0.165555    0.182330    0.183199    0.185630    0.207513
     0.223496    0.247048    0.250148    0.275351    0.321885    0.325274
     0.325970    0.330364    0.349350    0.478925    0.550632    0.952865

 Minimum Search - Taking Simple RFO Step
 Searching for Lamda that Minimizes Along All modes
 Value Taken    Lamda =  -0.01911671
 Calculated Step too Large.  Step scaled by  0.375472
 Step Taken.  Stepsize is  0.300000

                             Maximum     Tolerance    Cnvgd?
         Gradient           0.016417      0.000030      NO
         Displacement       0.162016      0.000120      NO
         Energy change     -0.008899      0.000000      NO


 New Cartesian Coordinates Obtained by Inverse Iteration

 Displacement from previous Coordinates is:  0.627922
 ----------------------------------------------------------------
             Standard Nuclear Orientation (Angstroms)
    I     Atom           X                Y                Z
 ----------------------------------------------------------------
    1      C       0.5146147990    -0.1156639540     0.0557801946
    2      O       1.5277189133     0.6927299704    -0.3296419465
    3      O       0.5961380066    -1.3294444073     0.0368707239
    4      C      -0.6801194630     0.6030847663     0.5123387966
    5      Si     -2.3501134134     0.0887564371    -0.1649611448
    6      H      -2.5955368493    -1.3650606434    -0.0536214021
    7      H      -2.3549263480     0.4824063918    -1.6001938308
    8      H      -3.4193739210     0.8363302378     0.5425337500
    9      H      -0.5200227510     1.6801110775     0.5987457778
   10      C       2.8335210273     0.2822886302     0.0339500827
   11      H       3.5152996842     1.0479059036    -0.3371700650
   12      H       3.0935966282    -0.6814747529    -0.4150966468
   13      H       2.9230242793     0.2095878821     1.1234482322
 ----------------------------------------------------------------
 Molecular Point Group                 C1    NOp =  1
 Largest Abelian Subgroup              C1    NOp =  1
 Nuclear Repulsion Energy =   282.6310925108 hartrees
 There are       28 alpha and       27 beta electrons
 Applying Cartesian multipole field
    Component          Value
    ---------          -----
     (2,0,0)        1.00000E-11
     (0,2,0)        2.00000E-11
     (0,0,2)       -3.00000E-11
 Nucleus-field energy     =     0.0000000085 hartrees
 Requested basis set is 6-31G(d,p)
 There are 46 shells and 129 basis functions
 A cutoff of  1.0D-12 yielded    939 shell pairs
 There are      7775 function pairs
 Smallest overlap matrix eigenvalue = 3.52E-03
 Guess MOs from SCF MO coefficient file
 Reading MOs from coefficient file
 Reading MOs from coefficient file
 Long-range K will be added via erf
 Coulomb attenuation parameter = 0.2 bohr**(-1)
 An unrestricted hybrid HF-DFT SCF calculation will be
 performed using Pulay DIIS + Geometric Direct Minimization
 Exchange:     0.2220 Hartree-Fock + 1.0000 wB97X-D + LR-HF
 Correlation:  1.0000 wB97X-D
 Using SG-1 standard quadrature grid
 SCF converges when RMS gradient is below 1.0E-08
Geometry optimization detected.  Setting ReadMinima to 0
Setting SaveMinima to 0
 using 12 threads for integral computing 
 using 12 threads for integral computing 
 using 12 threads for integral computing 
 -------------------------------------------------------
 OpenMP BLAS3 based DFT computing Module                
 Release: version 1.0, May 2013, Q-Chem Inc. Pittsburgh 
 -------------------------------------------------------
 ---------------------------------------
  Cycle       Energy        RMS Gradient
 ---------------------------------------
    1    -558.2908855113      2.73E-03 Done DIIS. Switching to GDM
    2    -558.3027205158      5.77E-03 Normal BFGS step
    3    -558.3033612547      2.09E-03 Normal BFGS step
    4    -558.3034443888      2.17E-03 Normal BFGS step
    5    -558.3034748906      1.02E-03 Normal BFGS step
    6    -558.3034791363      7.50E-04 Normal BFGS step
    7    -558.3034818025      3.38E-04 Normal BFGS step
    8    -558.3034821745      2.04E-04 Normal BFGS step
    9    -558.3034824114      1.15E-04 Normal BFGS step
   10    -558.3034824479      4.12E-05 Normal BFGS step
   11    -558.3034824543      1.81E-05 Normal BFGS step
   12    -558.3034824561      8.59E-06 Normal BFGS step
   13    -558.3034824564      2.99E-06 Normal BFGS step
   14    -558.3034824565      1.03E-06 Normal BFGS step
   15    -558.3034824565      2.83E-07 Normal BFGS step
   16    -558.3034824565      1.39E-07 Normal BFGS step
   GDM::WARNING energy changes are now smaller than effective accuracy.
   GDM::        calculation will continue, but THRESH should be increased
   GDM::        or SCF_CONVERGENCE decreased.
   GDM::        effective_thresh =   2.172907999364870E-009
   17    -558.3034824565      6.34E-08 Normal BFGS step
   GDM::WARNING energy changes are now smaller than effective accuracy.
   GDM::        calculation will continue, but THRESH should be increased
   GDM::        or SCF_CONVERGENCE decreased.
   GDM::        effective_thresh =   2.172907999364870E-009
   18    -558.3034824565      3.82E-08 Normal BFGS step
   19    -558.3034824565      1.91E-08 Normal BFGS step
   20    -558.3034824565      5.95E-09 Convergence criterion met
 ---------------------------------------
 <S^2> = 0.7595
 SCF time:  CPU 148.46 s  wall 14.49 s
 SCF   energy in the final basis set = -558.3034824565
 Total energy in the final basis set = -558.3034824565
 Analysis of SCF Wavefunction
 
 --------------------------------------------------------------
 
                    Orbital Energies (a.u.)
 --------------------------------------------------------------
 
 Alpha MOs
 -- Occupied --
-66.284 -19.311 -19.268 -10.434 -10.353 -10.338  -5.401  -3.746
 -3.745  -3.745  -1.208  -1.122  -0.871  -0.800  -0.667  -0.627
 -0.592  -0.576  -0.561  -0.515  -0.496  -0.452  -0.445  -0.432
 -0.428  -0.381  -0.365  -0.343
 -- Virtual --
  0.087   0.107   0.142   0.153   0.195   0.201   0.210   0.229
  0.242   0.258   0.287   0.302   0.324   0.355   0.390   0.411
  0.469   0.588   0.596   0.604   0.626   0.647   0.663   0.696
  0.737   0.749   0.760   0.790   0.835   0.875   0.905   0.912
  0.919   0.947   0.957   1.003   1.025   1.058   1.099   1.118
  1.142   1.172   1.188   1.234   1.266   1.270   1.364   1.435
  1.469   1.517   1.630   1.652   1.752   1.837   1.864   1.902
  1.946   1.963   1.973   2.024   2.049   2.068   2.076   2.112
  2.144   2.152   2.161   2.180   2.189   2.229   2.284   2.317
  2.321   2.394   2.469   2.494   2.554   2.595   2.621   2.639
  2.680   2.731   2.766   2.861   2.876   2.890   2.936   2.944
  3.045   3.108   3.159   3.230   3.277   3.447   3.500   3.522
  4.047   4.226   4.329   4.504   4.583
 
 Beta MOs
 -- Occupied --
-66.284 -19.311 -19.264 -10.435 -10.353 -10.328  -5.402  -3.746
 -3.746  -3.745  -1.206  -1.115  -0.854  -0.784  -0.664  -0.624
 -0.583  -0.572  -0.557  -0.510  -0.485  -0.442  -0.437  -0.428
 -0.417  -0.376  -0.358
 -- Virtual --
 -0.057   0.102   0.112   0.142   0.167   0.196   0.208   0.213
  0.231   0.242   0.259   0.290   0.303   0.327   0.361   0.395
  0.412   0.474   0.595   0.600   0.616   0.627   0.653   0.674
  0.704   0.741   0.752   0.767   0.794   0.840   0.879   0.907
  0.914   0.927   0.952   0.961   1.003   1.031   1.063   1.105
  1.123   1.150   1.178   1.192   1.237   1.270   1.272   1.370
  1.436   1.483   1.521   1.636   1.661   1.763   1.851   1.876
  1.910   1.953   1.969   1.986   2.030   2.055   2.071   2.094
  2.113   2.146   2.163   2.170   2.185   2.196   2.235   2.288
  2.320   2.323   2.402   2.475   2.506   2.567   2.598   2.629
  2.647   2.682   2.734   2.767   2.865   2.877   2.893   2.936
  2.946   3.047   3.111   3.159   3.232   3.278   3.457   3.500
  3.523   4.050   4.247   4.336   4.512   4.595
 --------------------------------------------------------------
 
          Ground-State Mulliken Net Atomic Charges

     Atom                 Charge (a.u.)    Spin (a.u.)
  --------------------------------------------------------
      1 C                     0.581686      -0.093888
      2 O                    -0.475319      -0.000915
      3 O                    -0.448575       0.175471
      4 C                    -0.328766       0.935981
      5 Si                    0.471984      -0.044309
      6 H                    -0.075851       0.007835
      7 H                    -0.085441       0.046932
      8 H                    -0.099214       0.003659
      9 H                     0.164353      -0.033781
     10 C                    -0.138140       0.003399
     11 H                     0.145411      -0.000285
     12 H                     0.153617      -0.000450
     13 H                     0.134254       0.000348
  --------------------------------------------------------
  Sum of atomic charges =    -0.000000
  Sum of spin   charges =     1.000000

 -----------------------------------------------------------------
                    Cartesian Multipole Moments
 -----------------------------------------------------------------
    Charge (ESU x 10^10)
                 0.0000
    Dipole Moment (Debye)
         X       0.6837      Y       1.9313      Z       0.5171
       Tot       2.1130
    Quadrupole Moments (Debye-Ang)
        XX     -36.4191     XY       0.7831     YY     -46.8958
        XZ       1.1368     YZ       0.8982     ZZ     -43.6493
    Octopole Moments (Debye-Ang^2)
       XXX      41.1109    XXY      -2.8950    XYY       3.5006
       YYY      -2.0374    XXZ       0.1575    XYZ       0.4933
       YYZ       1.0267    XZZ       7.0848    YZZ      -4.1255
       ZZZ       3.3459
    Hexadecapole Moments (Debye-Ang^3)
      XXXX    -983.6084   XXXY      15.4455   XXYY    -205.8803
      XYYY      -2.1744   YYYY    -171.0308   XXXZ      -5.1140
      XXYZ      -1.0688   XYYZ      -4.6079   YYYZ       0.0069
      XXZZ    -190.7450   XYZZ       0.1012   YYZZ     -42.7394
      XZZZ      -9.0380   YZZZ      -1.7313   ZZZZ     -86.6476
 -----------------------------------------------------------------
 Calculating analytic gradient of the SCF energy
 Gradient of SCF Energy
            1           2           3           4           5           6
    1  -0.0000087   0.0056483  -0.0014264  -0.0005725   0.0008231  -0.0002902
    2   0.0090300  -0.0113220  -0.0000100  -0.0085729   0.0030789   0.0001886
    3  -0.0046491  -0.0091618  -0.0020758   0.0259728  -0.0069055  -0.0001423
            7           8           9          10          11          12
    1   0.0001653   0.0000452   0.0003953  -0.0070118   0.0006915   0.0008976
    2   0.0000466  -0.0005094   0.0014596   0.0074974  -0.0004029  -0.0003442
    3   0.0003427   0.0002129  -0.0082740   0.0054640  -0.0004143  -0.0009992
           13
    1   0.0006433
    2  -0.0001397
    3   0.0006298
 Max gradient component =       2.597E-02
 RMS gradient           =       5.927E-03
 Gradient time:  CPU 20.71 s  wall 1.74 s
 Geometry Optimization Parameters
   NAtoms,    NIC,     NZ,  NCons,   NDum,   NFix, NCnnct, MaxDiis
       13      72       0       0       0       0       0       0

 Cartesian Hessian Update
 Hessian Updated using BFGS Update


** GEOMETRY OPTIMIZATION IN DELOCALIZED INTERNAL COORDINATES **
   Searching for a Minimum

   Optimization Cycle:   4

                       Coordinates (Angstroms)
     ATOM                X               Y               Z
      1  C         0.5146147990   -0.1156639540    0.0557801946
      2  O         1.5277189133    0.6927299704   -0.3296419465
      3  O         0.5961380066   -1.3294444073    0.0368707239
      4  C        -0.6801194630    0.6030847663    0.5123387966
      5  Si       -2.3501134134    0.0887564371   -0.1649611448
      6  H        -2.5955368493   -1.3650606434   -0.0536214021
      7  H        -2.3549263480    0.4824063918   -1.6001938308
      8  H        -3.4193739210    0.8363302378    0.5425337500
      9  H        -0.5200227510    1.6801110775    0.5987457778
     10  C         2.8335210273    0.2822886302    0.0339500827
     11  H         3.5152996842    1.0479059036   -0.3371700650
     12  H         3.0935966282   -0.6814747529   -0.4150966468
     13  H         2.9230242793    0.2095878821    1.1234482322
   Point Group: c1    Number of degrees of freedom:    33


   Energy is   -558.303482457

 Hessian Updated using BFGS Update

 31 Hessian modes will be used to form the next step
  Hessian Eigenvalues:
     0.004068    0.006489    0.009600    0.018411    0.019957    0.036662
     0.068854    0.074440    0.103181    0.105667    0.113515    0.159442
     0.160327    0.161181    0.165268    0.182403    0.183224    0.185569
     0.208120    0.225588    0.249994    0.251728    0.287465    0.322413
     0.325340    0.326571    0.330339    0.383687    0.483227    0.555449
     0.953663

 Minimum Search - Taking Simple RFO Step
 Searching for Lamda that Minimizes Along All modes
 Value Taken    Lamda =  -0.01559647
 Calculated Step too Large.  Step scaled by  0.369736
 Step Taken.  Stepsize is  0.300000

                             Maximum     Tolerance    Cnvgd?
         Gradient           0.012174      0.000030      NO
         Displacement       0.165097      0.000120      NO
         Energy change     -0.006503      0.000000      NO


 New Cartesian Coordinates Obtained by Inverse Iteration

 Displacement from previous Coordinates is:  0.576547
 ----------------------------------------------------------------
             Standard Nuclear Orientation (Angstroms)
    I     Atom           X                Y                Z
 ----------------------------------------------------------------
    1      C       0.5251203583    -0.0633561962     0.0983229566
    2      O       1.5404337718     0.7646594515    -0.2383693199
    3      O       0.6195075346    -1.2758145585     0.0745729082
    4      C      -0.6968449433     0.6546114563     0.4629615612
    5      Si     -2.3578229085     0.0741344738    -0.1750059020
    6      H      -2.5600070919    -1.3811268412    -0.0027085147
    7      H      -2.3894644776     0.4119015289    -1.6255561974
    8      H      -3.4382368213     0.8235842714     0.5154509970
    9      H      -0.5486249440     1.7292026347     0.5676763688
   10      C       2.8444335042     0.2583358117     0.0297135866
   11      H       3.5445794051     1.0360217764    -0.2710411746
   12      H       3.0440859459    -0.6573920022    -0.5317231203
   13      H       2.9566612589     0.0567957324     1.0986883724
 ----------------------------------------------------------------
 Molecular Point Group                 C1    NOp =  1
 Largest Abelian Subgroup              C1    NOp =  1
 Nuclear Repulsion Energy =   282.5508639766 hartrees
 There are       28 alpha and       27 beta electrons
 Applying Cartesian multipole field
    Component          Value
    ---------          -----
     (2,0,0)        1.00000E-11
     (0,2,0)        2.00000E-11
     (0,0,2)       -3.00000E-11
 Nucleus-field energy     =     0.0000000087 hartrees
 Requested basis set is 6-31G(d,p)
 There are 46 shells and 129 basis functions
 A cutoff of  1.0D-12 yielded    934 shell pairs
 There are      7721 function pairs
 Smallest overlap matrix eigenvalue = 3.36E-03
 Guess MOs from SCF MO coefficient file
 Reading MOs from coefficient file
 Reading MOs from coefficient file
 Long-range K will be added via erf
 Coulomb attenuation parameter = 0.2 bohr**(-1)
 An unrestricted hybrid HF-DFT SCF calculation will be
 performed using Pulay DIIS + Geometric Direct Minimization
 Exchange:     0.2220 Hartree-Fock + 1.0000 wB97X-D + LR-HF
 Correlation:  1.0000 wB97X-D
 Using SG-1 standard quadrature grid
 SCF converges when RMS gradient is below 1.0E-08
Geometry optimization detected.  Setting ReadMinima to 0
Setting SaveMinima to 0
 using 12 threads for integral computing 
 using 12 threads for integral computing 
 using 12 threads for integral computing 
 -------------------------------------------------------
 OpenMP BLAS3 based DFT computing Module                
 Release: version 1.0, May 2013, Q-Chem Inc. Pittsburgh 
 -------------------------------------------------------
 ---------------------------------------
  Cycle       Energy        RMS Gradient
 ---------------------------------------
    1    -558.2981692731      2.52E-03 Done DIIS. Switching to GDM
    2    -558.3081294240      4.20E-03 Normal BFGS step
    3    -558.3086881612      1.59E-03 Normal BFGS step
    4    -558.3087550826      1.43E-03 Normal BFGS step
    5    -558.3087727360      8.03E-04 Normal BFGS step
    6    -558.3087740991      5.52E-04 Normal BFGS step
    7    -558.3087761595      1.75E-04 Normal BFGS step
    8    -558.3087763059      8.72E-05 Normal BFGS step
    9    -558.3087763727      3.97E-05 Normal BFGS step
   10    -558.3087763856      2.10E-05 Normal BFGS step
   11    -558.3087763898      7.76E-06 Normal BFGS step
   12    -558.3087763904      2.50E-06 Normal BFGS step
   13    -558.3087763904      1.37E-06 Normal BFGS step
   14    -558.3087763904      5.57E-07 Normal BFGS step
   15    -558.3087763904      2.70E-07 Normal BFGS step
   16    -558.3087763905      1.82E-07 Normal BFGS step
   GDM::WARNING energy changes are now smaller than effective accuracy.
   GDM::        calculation will continue, but THRESH should be increased
   GDM::        or SCF_CONVERGENCE decreased.
   GDM::        effective_thresh =   1.525921874967473E-009
   17    -558.3087763905      1.03E-07 Normal BFGS step
   GDM::WARNING energy changes are now smaller than effective accuracy.
   GDM::        calculation will continue, but THRESH should be increased
   GDM::        or SCF_CONVERGENCE decreased.
   GDM::        effective_thresh =   1.525921874967473E-009
   18    -558.3087763905      2.04E-08 Normal BFGS step
   19    -558.3087763905      8.21E-09 Convergence criterion met
 ---------------------------------------
 <S^2> = 0.7587
 SCF time:  CPU 255.00 s  wall 32.09 s
 SCF   energy in the final basis set = -558.3087763905
 Total energy in the final basis set = -558.3087763905
 Analysis of SCF Wavefunction
 
 --------------------------------------------------------------
 
                    Orbital Energies (a.u.)
 --------------------------------------------------------------
 
 Alpha MOs
 -- Occupied --
-66.284 -19.314 -19.266 -10.432 -10.352 -10.336  -5.401  -3.745
 -3.745  -3.745  -1.208  -1.120  -0.872  -0.797  -0.667  -0.626
 -0.592  -0.575  -0.560  -0.513  -0.496  -0.450  -0.447  -0.433
 -0.429  -0.385  -0.365  -0.340
 -- Virtual --
  0.091   0.108   0.141   0.156   0.196   0.203   0.208   0.228
  0.243   0.259   0.288   0.303   0.323   0.358   0.385   0.407
  0.474   0.589   0.595   0.607   0.627   0.648   0.663   0.704
  0.739   0.752   0.762   0.797   0.835   0.874   0.908   0.913
  0.924   0.949   0.958   1.005   1.027   1.064   1.104   1.111
  1.145   1.172   1.185   1.231   1.262   1.285   1.363   1.427
  1.451   1.519   1.626   1.672   1.747   1.842   1.865   1.904
  1.943   1.968   1.992   2.018   2.046   2.069   2.074   2.113
  2.140   2.156   2.159   2.188   2.194   2.225   2.284   2.316
  2.319   2.403   2.469   2.503   2.557   2.593   2.619   2.636
  2.678   2.741   2.763   2.859   2.875   2.880   2.937   2.949
  3.042   3.115   3.158   3.238   3.286   3.452   3.502   3.527
  4.058   4.227   4.339   4.502   4.589
 
 Beta MOs
 -- Occupied --
-66.284 -19.314 -19.262 -10.433 -10.352 -10.326  -5.401  -3.746
 -3.745  -3.745  -1.206  -1.114  -0.854  -0.782  -0.664  -0.623
 -0.583  -0.571  -0.556  -0.509  -0.484  -0.444  -0.436  -0.428
 -0.420  -0.377  -0.358
 -- Virtual --
 -0.055   0.104   0.113   0.142   0.170   0.197   0.210   0.212
  0.230   0.243   0.260   0.290   0.304   0.326   0.364   0.391
  0.408   0.479   0.597   0.602   0.617   0.630   0.655   0.672
  0.711   0.743   0.755   0.773   0.802   0.838   0.878   0.910
  0.915   0.931   0.954   0.962   1.005   1.031   1.068   1.109
  1.117   1.154   1.178   1.189   1.234   1.263   1.289   1.369
  1.428   1.465   1.524   1.632   1.679   1.761   1.858   1.876
  1.912   1.948   1.973   2.003   2.024   2.051   2.072   2.094
  2.114   2.146   2.161   2.170   2.195   2.201   2.230   2.289
  2.320   2.321   2.409   2.476   2.516   2.570   2.597   2.626
  2.644   2.679   2.744   2.765   2.863   2.876   2.883   2.938
  2.951   3.044   3.118   3.158   3.240   3.286   3.462   3.502
  3.527   4.061   4.246   4.349   4.510   4.600
 --------------------------------------------------------------
 
          Ground-State Mulliken Net Atomic Charges

     Atom                 Charge (a.u.)    Spin (a.u.)
  --------------------------------------------------------
      1 C                     0.592791      -0.091594
      2 O                    -0.476104       0.004563
      3 O                    -0.459487       0.166230
      4 C                    -0.331529       0.939373
      5 Si                    0.471353      -0.046177
      6 H                    -0.075834       0.008531
      7 H                    -0.086440       0.046689
      8 H                    -0.099455       0.004642
      9 H                     0.166248      -0.035374
     10 C                    -0.139238       0.002886
     11 H                     0.144040      -0.000217
     12 H                     0.155436      -0.000515
     13 H                     0.138218       0.000964
  --------------------------------------------------------
  Sum of atomic charges =    -0.000000
  Sum of spin   charges =     1.000000

 -----------------------------------------------------------------
                    Cartesian Multipole Moments
 -----------------------------------------------------------------
    Charge (ESU x 10^10)
                -0.0000
    Dipole Moment (Debye)
         X       0.6735      Y       1.8221      Z       0.4132
       Tot       1.9861
    Quadrupole Moments (Debye-Ang)
        XX     -36.3765     XY       0.5857     YY     -46.8064
        XZ       0.8660     YZ       0.9165     ZZ     -43.4888
    Octopole Moments (Debye-Ang^2)
       XXX      41.1914    XXY      -4.1003    XYY       2.9729
       YYY      -4.6606    XXZ      -0.2311    XYZ       0.4394
       YYZ       0.4406    XZZ       7.3335    YZZ      -4.9199
       ZZZ       2.2705
    Hexadecapole Moments (Debye-Ang^3)
      XXXX    -991.2748   XXXY      14.0642   XXYY    -207.6518
      XYYY      -4.1539   YYYY    -169.8312   XXXZ      -8.9985
      XXYZ      -0.7092   XYYZ      -5.9215   YYYZ       0.5233
      XXZZ    -191.7068   XYZZ      -0.9587   YYZZ     -42.3178
      XZZZ     -13.3941   YZZZ      -1.6414   ZZZZ     -84.0268
 -----------------------------------------------------------------
 Calculating analytic gradient of the SCF energy
 Gradient of SCF Energy
            1           2           3           4           5           6
    1   0.0021732   0.0003808  -0.0019169  -0.0003380   0.0001470  -0.0002361
    2   0.0048977  -0.0040155   0.0003136  -0.0065571   0.0023435  -0.0002706
    3   0.0017884  -0.0119660  -0.0035507   0.0194213  -0.0049181  -0.0001886
            7           8           9          10          11          12
    1   0.0004579  -0.0002455   0.0012537  -0.0029790   0.0000807   0.0010227
    2   0.0003549  -0.0002526   0.0002064   0.0030647  -0.0007288   0.0001540
    3  -0.0002678   0.0002648  -0.0062759   0.0060950   0.0000901  -0.0001585
           13
    1   0.0001995
    2   0.0004898
    3  -0.0003341
 Max gradient component =       1.942E-02
 RMS gradient           =       4.406E-03
 Gradient time:  CPU 28.82 s  wall 3.04 s
 Geometry Optimization Parameters
   NAtoms,    NIC,     NZ,  NCons,   NDum,   NFix, NCnnct, MaxDiis
       13      72       0       0       0       0       0       0

 Cartesian Hessian Update
 Hessian Updated using BFGS Update


** GEOMETRY OPTIMIZATION IN DELOCALIZED INTERNAL COORDINATES **
   Searching for a Minimum

   Optimization Cycle:   5

                       Coordinates (Angstroms)
     ATOM                X               Y               Z
      1  C         0.5251203583   -0.0633561962    0.0983229566
      2  O         1.5404337718    0.7646594515   -0.2383693199
      3  O         0.6195075346   -1.2758145585    0.0745729082
      4  C        -0.6968449433    0.6546114563    0.4629615612
      5  Si       -2.3578229085    0.0741344738   -0.1750059020
      6  H        -2.5600070919   -1.3811268412   -0.0027085147
      7  H        -2.3894644776    0.4119015289   -1.6255561974
      8  H        -3.4382368213    0.8235842714    0.5154509970
      9  H        -0.5486249440    1.7292026347    0.5676763688
     10  C         2.8444335042    0.2583358117    0.0297135866
     11  H         3.5445794051    1.0360217764   -0.2710411746
     12  H         3.0440859459   -0.6573920022   -0.5317231203
     13  H         2.9566612589    0.0567957324    1.0986883724
   Point Group: c1    Number of degrees of freedom:    33


   Energy is   -558.308776390

 Hessian Updated using BFGS Update

 32 Hessian modes will be used to form the next step
  Hessian Eigenvalues:
     0.004044    0.005522    0.009305    0.018397    0.025572    0.037673
     0.068918    0.074457    0.103402    0.107632    0.115368    0.159154
     0.160040    0.160796    0.161945    0.166169    0.182427    0.183221
     0.185547    0.208369    0.233181    0.250282    0.258665    0.292091
     0.322418    0.325437    0.326964    0.330375    0.403790    0.498519
     0.557527    0.953934

 Minimum Search - Taking Simple RFO Step
 Searching for Lamda that Minimizes Along All modes
 Value Taken    Lamda =  -0.01393816
 Calculated Step too Large.  Step scaled by  0.358423
 Step Taken.  Stepsize is  0.300000

                             Maximum     Tolerance    Cnvgd?
         Gradient           0.008913      0.000030      NO
         Displacement       0.163736      0.000120      NO
         Energy change     -0.005294      0.000000      NO


 New Cartesian Coordinates Obtained by Inverse Iteration

 Displacement from previous Coordinates is:  0.582714
 ----------------------------------------------------------------
             Standard Nuclear Orientation (Angstroms)
    I     Atom           X                Y                Z
 ----------------------------------------------------------------
    1      C       0.5307483386    -0.0197814709     0.1104713590
    2      O       1.5592010017     0.8195467504    -0.1466644222
    3      O       0.6415187338    -1.2308009133     0.1164597869
    4      C      -0.7069205584     0.7005503951     0.4011751515
    5      Si     -2.3638486961     0.0619392132    -0.1815113133
    6      H      -2.5258967695    -1.3893322080     0.0557566489
    7      H      -2.4362033626     0.3394208064    -1.6436280460
    8      H      -3.4454689912     0.8171719990     0.5019710682
    9      H      -0.5718055630     1.7741508642     0.5171367485
   10      C       2.8535461892     0.2388985396     0.0324683355
   11      H       3.5724532476     1.0269578489    -0.1814080855
   12      H       3.0041408522    -0.6047609033    -0.6429282495
   13      H       2.9723561699    -0.1024033823     1.0636835397
 ----------------------------------------------------------------
 Molecular Point Group                 C1    NOp =  1
 Largest Abelian Subgroup              C1    NOp =  1
 Nuclear Repulsion Energy =   282.4797167549 hartrees
 There are       28 alpha and       27 beta electrons
 Applying Cartesian multipole field
    Component          Value
    ---------          -----
     (2,0,0)        1.00000E-11
     (0,2,0)        2.00000E-11
     (0,0,2)       -3.00000E-11
 Nucleus-field energy     =     0.0000000088 hartrees
 Requested basis set is 6-31G(d,p)
 There are 46 shells and 129 basis functions
 A cutoff of  1.0D-12 yielded    933 shell pairs
 There are      7709 function pairs
 Smallest overlap matrix eigenvalue = 3.23E-03
 Guess MOs from SCF MO coefficient file
 Reading MOs from coefficient file
 Reading MOs from coefficient file
 Long-range K will be added via erf
 Coulomb attenuation parameter = 0.2 bohr**(-1)
 An unrestricted hybrid HF-DFT SCF calculation will be
 performed using Pulay DIIS + Geometric Direct Minimization
 Exchange:     0.2220 Hartree-Fock + 1.0000 wB97X-D + LR-HF
 Correlation:  1.0000 wB97X-D
 Using SG-1 standard quadrature grid
 SCF converges when RMS gradient is below 1.0E-08
Geometry optimization detected.  Setting ReadMinima to 0
Setting SaveMinima to 0
 using 12 threads for integral computing 
 using 12 threads for integral computing 
 using 12 threads for integral computing 
 -------------------------------------------------------
 OpenMP BLAS3 based DFT computing Module                
 Release: version 1.0, May 2013, Q-Chem Inc. Pittsburgh 
 -------------------------------------------------------
 ---------------------------------------
  Cycle       Energy        RMS Gradient
 ---------------------------------------
    1    -558.2999786855      2.54E-03 Done DIIS. Switching to GDM
    2    -558.3125887840      4.60E-03 Normal BFGS step
    3    -558.3131929967      2.29E-03 Normal BFGS step
    4    -558.3132629656      1.84E-03 Normal BFGS step
    5    -558.3132823397      9.47E-04 Normal BFGS step
    6    -558.3132844764      6.68E-04 Normal BFGS step
    7    -558.3132865905      3.08E-04 Normal BFGS step
    8    -558.3132868492      1.78E-04 Normal BFGS step
    9    -558.3132869989      6.90E-05 Normal BFGS step
   10    -558.3132870233      2.56E-05 Normal BFGS step
   11    -558.3132870283      7.47E-06 Normal BFGS step
   12    -558.3132870290      2.54E-06 Normal BFGS step
   13    -558.3132870290      1.41E-06 Normal BFGS step
   14    -558.3132870290      6.36E-07 Normal BFGS step
   15    -558.3132870291      2.09E-07 Normal BFGS step
   GDM::WARNING energy changes are now smaller than effective accuracy.
   GDM::        calculation will continue, but THRESH should be increased
   GDM::        or SCF_CONVERGENCE decreased.
   GDM::        effective_thresh =   1.429864934787695E-009
   16    -558.3132870291      1.03E-07 Normal BFGS step
   GDM::WARNING energy changes are now smaller than effective accuracy.
   GDM::        calculation will continue, but THRESH should be increased
   GDM::        or SCF_CONVERGENCE decreased.
   GDM::        effective_thresh =   1.429864934787695E-009
   17    -558.3132870290      5.78E-08 Normal BFGS step
   GDM::WARNING energy changes are now smaller than effective accuracy.
   GDM::        calculation will continue, but THRESH should be increased
   GDM::        or SCF_CONVERGENCE decreased.
   GDM::        effective_thresh =   1.429864934787695E-009
   18    -558.3132870290      3.56E-08 Normal BFGS step
   19    -558.3132870290      1.95E-08 Normal BFGS step
   20    -558.3132870290      4.91E-09 Convergence criterion met
 ---------------------------------------
 <S^2> = 0.7581
 SCF time:  CPU 179.15 s  wall 17.87 s
 SCF   energy in the final basis set = -558.3132870290
 Total energy in the final basis set = -558.3132870290
 Analysis of SCF Wavefunction
 
 --------------------------------------------------------------
 
                    Orbital Energies (a.u.)
 --------------------------------------------------------------
 
 Alpha MOs
 -- Occupied --
-66.283 -19.316 -19.265 -10.431 -10.351 -10.335  -5.401  -3.745
 -3.745  -3.744  -1.208  -1.120  -0.872  -0.796  -0.667  -0.626
 -0.593  -0.575  -0.560  -0.512  -0.495  -0.449  -0.447  -0.434
 -0.429  -0.388  -0.365  -0.337
 -- Virtual --
  0.096   0.108   0.141   0.158   0.197   0.204   0.207   0.228
  0.244   0.259   0.288   0.304   0.321   0.361   0.382   0.403
  0.476   0.589   0.595   0.611   0.626   0.650   0.665   0.711
  0.741   0.754   0.763   0.800   0.832   0.874   0.913   0.914
  0.927   0.950   0.956   1.004   1.029   1.063   1.105   1.117
  1.151   1.172   1.186   1.225   1.255   1.303   1.353   1.419
  1.440   1.530   1.608   1.700   1.743   1.838   1.869   1.907
  1.943   1.976   2.007   2.015   2.048   2.068   2.069   2.112
  2.136   2.153   2.160   2.189   2.201   2.227   2.285   2.315
  2.318   2.410   2.471   2.497   2.566   2.594   2.615   2.633
  2.678   2.751   2.761   2.856   2.870   2.876   2.936   2.953
  3.042   3.121   3.158   3.250   3.292   3.456   3.504   3.529
  4.076   4.233   4.347   4.502   4.598
 
 Beta MOs
 -- Occupied --
-66.283 -19.316 -19.261 -10.433 -10.351 -10.325  -5.401  -3.745
 -3.745  -3.745  -1.206  -1.114  -0.855  -0.780  -0.664  -0.622
 -0.583  -0.570  -0.556  -0.508  -0.483  -0.446  -0.435  -0.428
 -0.422  -0.379  -0.359
 -- Virtual --
 -0.053   0.107   0.114   0.141   0.173   0.198   0.210   0.212
  0.230   0.244   0.259   0.290   0.305   0.325   0.366   0.388
  0.404   0.481   0.594   0.605   0.617   0.633   0.656   0.671
  0.715   0.744   0.756   0.778   0.806   0.836   0.878   0.915
  0.916   0.934   0.955   0.961   1.005   1.033   1.067   1.111
  1.123   1.159   1.179   1.190   1.228   1.257   1.307   1.359
  1.421   1.454   1.535   1.616   1.704   1.759   1.855   1.881
  1.914   1.948   1.981   2.015   2.022   2.052   2.072   2.089
  2.113   2.143   2.159   2.170   2.199   2.206   2.231   2.290
  2.319   2.319   2.415   2.477   2.513   2.577   2.599   2.622
  2.641   2.679   2.752   2.764   2.861   2.873   2.878   2.937
  2.955   3.045   3.123   3.158   3.252   3.292   3.466   3.504
  3.530   4.079   4.252   4.357   4.510   4.608
 --------------------------------------------------------------
 
          Ground-State Mulliken Net Atomic Charges

     Atom                 Charge (a.u.)    Spin (a.u.)
  --------------------------------------------------------
      1 C                     0.601810      -0.090582
      2 O                    -0.477363       0.011372
      3 O                    -0.468274       0.158973
      4 C                    -0.332564       0.940151
      5 Si                    0.469032      -0.047239
      6 H                    -0.075570       0.009186
      7 H                    -0.087432       0.046559
      8 H                    -0.099653       0.005428
      9 H                     0.168216      -0.036200
     10 C                    -0.137349       0.001361
     11 H                     0.142922      -0.000100
     12 H                     0.154324      -0.000290
     13 H                     0.141901       0.001380
  --------------------------------------------------------
  Sum of atomic charges =    -0.000000
  Sum of spin   charges =     1.000000

 -----------------------------------------------------------------
                    Cartesian Multipole Moments
 -----------------------------------------------------------------
    Charge (ESU x 10^10)
                -0.0000
    Dipole Moment (Debye)
         X       0.6580      Y       1.7430      Z       0.2542
       Tot       1.8803
    Quadrupole Moments (Debye-Ang)
        XX     -36.4396     XY       0.4191     YY     -46.7080
        XZ       0.5805     YZ       0.9005     ZZ     -43.3831
    Octopole Moments (Debye-Ang^2)
       XXX      41.1132    XXY      -5.0825    XYY       2.4559
       YYY      -6.7467    XXZ      -0.4488    XYZ       0.3743
[...]
 Searching for Lamda that Minimizes Along All modes
 Value Taken    Lamda =   0.00000000
 Step Taken.  Stepsize is  0.001722

                             Maximum     Tolerance    Cnvgd?
         Gradient           0.000038      0.000030      NO
         Displacement       0.001095      0.000120      NO
         Energy change     -0.000000      0.000000      NO


 New Cartesian Coordinates Obtained by Inverse Iteration

 Displacement from previous Coordinates is:  0.002228
 ----------------------------------------------------------------
             Standard Nuclear Orientation (Angstroms)
    I     Atom           X                Y                Z
 ----------------------------------------------------------------
    1      C       0.5257302888     0.1305985181     0.0100075403
    2      O       1.6234821038     0.8582166421     0.2896131034
    3      O       0.5715967501    -1.0214087362    -0.3893783015
    4      C      -0.7155727511     0.8598973750     0.2268124796
    5      Si     -2.3393648031     0.0227472458    -0.1601739944
    6      H      -2.5124025840    -1.1865087651     0.6819568820
    7      H      -2.3944211453    -0.3586757098    -1.5929845255
    8      H      -3.4340276049     0.9833633295     0.1315672317
    9      H      -0.6408677524     1.8719020689     0.6148270982
   10      C       2.8640787035     0.1859487872     0.0826815751
   11      H       3.6365413555     0.9355310263     0.2480977639
   12      H       2.9201151248    -0.2125681654    -0.9323655631
   13      H       2.9789329064    -0.6374860773     0.7923212322
 ----------------------------------------------------------------
 Molecular Point Group                 C1    NOp =  1
 Largest Abelian Subgroup              C1    NOp =  1
 Nuclear Repulsion Energy =   283.7043277324 hartrees
 There are       28 alpha and       27 beta electrons
 Applying Cartesian multipole field
    Component          Value
    ---------          -----
     (2,0,0)        1.00000E-11
     (0,2,0)        2.00000E-11
     (0,0,2)       -3.00000E-11
 Nucleus-field energy     =     0.0000000085 hartrees
 Requested basis set is 6-31G(d,p)
 There are 46 shells and 129 basis functions
 A cutoff of  1.0D-12 yielded    931 shell pairs
 There are      7710 function pairs
 Smallest overlap matrix eigenvalue = 2.95E-03
 Guess MOs from SCF MO coefficient file
 Reading MOs from coefficient file
 Reading MOs from coefficient file
 Long-range K will be added via erf
 Coulomb attenuation parameter = 0.2 bohr**(-1)
 An unrestricted hybrid HF-DFT SCF calculation will be
 performed using Pulay DIIS + Geometric Direct Minimization
 Exchange:     0.2220 Hartree-Fock + 1.0000 wB97X-D + LR-HF
 Correlation:  1.0000 wB97X-D
 Using SG-1 standard quadrature grid
 SCF converges when RMS gradient is below 1.0E-08
Geometry optimization detected.  Setting ReadMinima to 0
Setting SaveMinima to 0
 using 12 threads for integral computing 
 using 12 threads for integral computing 
 using 12 threads for integral computing 
 -------------------------------------------------------
 OpenMP BLAS3 based DFT computing Module                
 Release: version 1.0, May 2013, Q-Chem Inc. Pittsburgh 
 -------------------------------------------------------
 ---------------------------------------
  Cycle       Energy        RMS Gradient
 ---------------------------------------
    1    -558.3217745932      1.18E-05 Done DIIS. Switching to GDM
    2    -558.3217613790      2.06E-05 Normal BFGS step
    3    -558.3217613866      3.26E-05 Normal BFGS step
    4    -558.3217613899      8.48E-06 Normal BFGS step
    5    -558.3217613906      5.60E-06 Normal BFGS step
    6    -558.3217613907      3.76E-06 Normal BFGS step
    7    -558.3217613907      2.14E-06 Normal BFGS step
    8    -558.3217613907      5.52E-07 Normal BFGS step
    9    -558.3217613907      2.35E-07 Normal BFGS step
   GDM::WARNING energy changes are now smaller than effective accuracy.
   GDM::        calculation will continue, but THRESH should be increased
   GDM::        or SCF_CONVERGENCE decreased.
   GDM::        effective_thresh =   2.800000000000000E-010
   10    -558.3217613907      7.66E-08 Normal BFGS step
   11    -558.3217613907      1.59E-08 Normal BFGS step
   GDM::WARNING energy changes are now smaller than effective accuracy.
   GDM::        calculation will continue, but THRESH should be increased
   GDM::        or SCF_CONVERGENCE decreased.
   GDM::        effective_thresh =   2.800000000000000E-010
   12    -558.3217613907      7.30E-09 Convergence criterion met
 ---------------------------------------
 <S^2> = 0.7578
 SCF time:  CPU 86.86 s  wall 10.04 s
 SCF   energy in the final basis set = -558.3217613907
 Total energy in the final basis set = -558.3217613907
 Analysis of SCF Wavefunction
 
 --------------------------------------------------------------
 
                    Orbital Energies (a.u.)
 --------------------------------------------------------------
 
 Alpha MOs
 -- Occupied --
-66.280 -19.321 -19.265 -10.431 -10.352 -10.335  -5.397  -3.742
 -3.741  -3.741  -1.212  -1.120  -0.873  -0.798  -0.668  -0.623
 -0.597  -0.578  -0.563  -0.513  -0.496  -0.448  -0.440  -0.438
 -0.426  -0.394  -0.367  -0.335
 -- Virtual --
  0.102   0.109   0.145   0.174   0.197   0.204   0.211   0.229
  0.243   0.257   0.297   0.310   0.312   0.357   0.380   0.402
  0.485   0.586   0.597   0.616   0.623   0.650   0.678   0.711
  0.746   0.759   0.768   0.802   0.826   0.881   0.918   0.922
  0.928   0.949   0.953   1.004   1.041   1.056   1.094   1.148
  1.157   1.170   1.228   1.234   1.279   1.327   1.368   1.397
  1.408   1.549   1.652   1.678   1.719   1.802   1.883   1.903
  1.988   1.998   2.009   2.039   2.068   2.072   2.078   2.096
  2.111   2.145   2.150   2.189   2.200   2.221   2.293   2.308
  2.322   2.428   2.450   2.515   2.580   2.591   2.608   2.626
  2.678   2.755   2.783   2.824   2.873   2.877   2.929   2.955
  3.043   3.123   3.168   3.277   3.293   3.465   3.504   3.530
  4.078   4.248   4.422   4.490   4.604
 
 Beta MOs
 -- Occupied --
-66.280 -19.320 -19.261 -10.433 -10.352 -10.326  -5.398  -3.742
 -3.742  -3.741  -1.209  -1.114  -0.857  -0.780  -0.664  -0.621
 -0.587  -0.572  -0.560  -0.509  -0.480  -0.445  -0.430  -0.429
 -0.424  -0.379  -0.361
 -- Virtual --
 -0.054   0.112   0.115   0.145   0.196   0.198   0.205   0.217
  0.231   0.244   0.257   0.298   0.313   0.314   0.360   0.387
  0.402   0.490   0.589   0.608   0.618   0.637   0.654   0.679
  0.714   0.750   0.759   0.794   0.804   0.829   0.886   0.920
  0.924   0.932   0.952   0.961   1.005   1.042   1.062   1.099
  1.157   1.163   1.174   1.230   1.238   1.282   1.331   1.371
  1.404   1.421   1.554   1.653   1.718   1.720   1.812   1.897
  1.907   1.990   2.000   2.012   2.042   2.075   2.075   2.091
  2.114   2.127   2.152   2.155   2.198   2.202   2.223   2.297
  2.310   2.326   2.430   2.457   2.535   2.585   2.595   2.626
  2.629   2.678   2.757   2.786   2.826   2.876   2.878   2.930
  2.958   3.045   3.125   3.169   3.278   3.293   3.473   3.504
  3.531   4.083   4.266   4.430   4.500   4.611
 --------------------------------------------------------------
 
          Ground-State Mulliken Net Atomic Charges

     Atom                 Charge (a.u.)    Spin (a.u.)
  --------------------------------------------------------
      1 C                     0.621839      -0.092459
      2 O                    -0.478073       0.023974
      3 O                    -0.477346       0.160175
      4 C                    -0.337100       0.932178
      5 Si                    0.469442      -0.048115
      6 H                    -0.083934       0.032413
      7 H                    -0.084185       0.031090
      8 H                    -0.106363      -0.000567
      9 H                     0.169858      -0.038736
     10 C                    -0.134894      -0.002644
     11 H                     0.142813       0.000059
     12 H                     0.150837       0.000848
     13 H                     0.147105       0.001783
  --------------------------------------------------------
  Sum of atomic charges =    -0.000000
  Sum of spin   charges =     1.000000

 -----------------------------------------------------------------
                    Cartesian Multipole Moments
 -----------------------------------------------------------------
    Charge (ESU x 10^10)
                -0.0000
    Dipole Moment (Debye)
         X       0.8736      Y       1.5740      Z       0.5712
       Tot       1.8887
    Quadrupole Moments (Debye-Ang)
        XX     -36.9099     XY      -0.2081     YY     -45.8043
        XZ       0.0022     YZ      -0.9150     ZZ     -43.5751
    Octopole Moments (Debye-Ang^2)
       XXX      42.6355    XXY      -8.2898    XYY       2.7318
       YYY     -13.8892    XXZ       0.5009    XYZ      -1.7728
       YYZ       2.9777    XZZ       6.5384    YZZ      -5.9682
       ZZZ       3.4717
    Hexadecapole Moments (Debye-Ang^3)
      XXXX    -999.9509   XXXY       8.2032   XXYY    -208.5289
      XYYY     -12.6823   YYYY    -160.9119   XXXZ     -16.9276
      XXYZ      -5.3668   XYYZ      -6.9420   YYYZ     -14.2129
      XXZZ    -193.0253   XYZZ      -6.1107   YYZZ     -40.9572
      XZZZ     -26.5550   YZZZ     -16.1544   ZZZZ     -83.8714
 -----------------------------------------------------------------
 Calculating analytic gradient of the SCF energy
 Gradient of SCF Energy
            1           2           3           4           5           6
    1  -0.0000044  -0.0000033   0.0000127   0.0000067  -0.0000006  -0.0000049
    2  -0.0000197   0.0000105   0.0000161  -0.0000079   0.0000038  -0.0000148
    3   0.0000007   0.0000297  -0.0000128  -0.0000168  -0.0000245  -0.0000419
            7           8           9          10          11          12
    1   0.0000194  -0.0000048  -0.0000156  -0.0000073  -0.0000046   0.0000100
    2   0.0000120  -0.0000092  -0.0000091   0.0000067   0.0000009   0.0000121
    3  -0.0000317  -0.0000221   0.0000156   0.0000239   0.0000386   0.0000229
           13
    1  -0.0000032
    2  -0.0000014
    3   0.0000182
 Max gradient component =       4.187E-05
 RMS gradient           =       1.678E-05
 Gradient time:  CPU 20.42 s  wall 1.72 s
 Geometry Optimization Parameters
   NAtoms,    NIC,     NZ,  NCons,   NDum,   NFix, NCnnct, MaxDiis
       13      72       0       0       0       0       0       0

 Cartesian Hessian Update
 Hessian Updated using BFGS Update


** GEOMETRY OPTIMIZATION IN DELOCALIZED INTERNAL COORDINATES **
   Searching for a Minimum

   Optimization Cycle:  20

                       Coordinates (Angstroms)
     ATOM                X               Y               Z
      1  C         0.5257302888    0.1305985181    0.0100075403
      2  O         1.6234821038    0.8582166421    0.2896131034
      3  O         0.5715967501   -1.0214087362   -0.3893783015
      4  C        -0.7155727511    0.8598973750    0.2268124796
      5  Si       -2.3393648031    0.0227472458   -0.1601739944
      6  H        -2.5124025840   -1.1865087651    0.6819568820
      7  H        -2.3944211453   -0.3586757098   -1.5929845255
      8  H        -3.4340276049    0.9833633295    0.1315672317
      9  H        -0.6408677524    1.8719020689    0.6148270982
     10  C         2.8640787035    0.1859487872    0.0826815751
     11  H         3.6365413555    0.9355310263    0.2480977639
     12  H         2.9201151248   -0.2125681654   -0.9323655631
     13  H         2.9789329064   -0.6374860773    0.7923212322
   Point Group: c1    Number of degrees of freedom:    33


   Energy is   -558.321761391

 Hessian Updated using BFGS Update

 33 Hessian modes will be used to form the next step
  Hessian Eigenvalues:
     0.002568    0.006803    0.010675    0.023931    0.038385    0.058462
     0.069445    0.072964    0.104550    0.108579    0.113760    0.130535
     0.159439    0.160297    0.163189    0.166240    0.172086    0.181554
     0.183968    0.185451    0.188526    0.209965    0.255696    0.281095
     0.307119    0.324293    0.326270    0.330287    0.330739    0.372673
     0.488986    0.561390    0.938136

 Minimum Search - Taking Simple RFO Step
 Searching for Lamda that Minimizes Along All modes
 Value Taken    Lamda =   0.00000000
 Step Taken.  Stepsize is  0.001003

                             Maximum     Tolerance    Cnvgd?
         Gradient           0.000020      0.000030     YES
         Displacement       0.000541      0.000120      NO
         Energy change     -0.000000      0.000000     YES


                       Distance Matrix (Angstroms)
             C (  1)   O (  2)   O (  3)   C (  4)   Si(  5)   H (  6)
   O (  2)  1.346353
   O (  3)  1.220137  2.258425
   C (  4)  1.455924  2.339898  2.361315
   Si(  5)  2.872171  4.074859  3.101047  1.867426
   H (  6)  3.378837  4.630376  3.268955  2.761074  1.483721
   H (  7)  3.366936  4.600929  3.268814  2.759549  1.483732  2.423754
   H (  8)  4.052366  5.061526  4.509492  2.722923  1.485322  2.420881
   H (  9)  2.181489  2.502120  3.293895  1.086411  2.627716  3.586227
   C ( 10)  2.340132  1.426129  2.633634  3.645392  5.211664  5.581158
   H ( 11)  3.222072  2.014971  3.691866  4.352823  6.058986  6.519264
   H ( 12)  2.595941  2.078718  2.542557  3.963849  5.321070  5.750378
   H ( 13)  2.687038  2.080166  2.709073  4.026330  5.443110  5.519816
             H (  7)   H (  8)   H (  9)   C ( 10)   H ( 11)   H ( 12)
   H (  8)  2.419903
   H (  9)  3.595116  2.970654
   C ( 10)  5.545836  6.348575  3.925591
   H ( 11)  6.437163  7.071691  4.394031  1.089006
   H ( 12)  5.357430  6.552659  4.406747  1.091914  1.795798
   H ( 13)  5.885606  6.647542  4.408116  1.093080  1.789696  1.777234

 
 Final energy is   -558.321761390714     


 ******************************
 **  OPTIMIZATION CONVERGED  **
 ******************************

Z-matrix Print:
$molecule
0 2
Si
H  1 1.483721
H  1 1.483732 2 109.527396
H  1 1.485322 2 109.248763 3 -119.546231 0
C  1 1.867426 2 110.435549 3 121.719320 0
H  5 1.086411 1 123.462615 2 118.413899 0
C  5 1.455924 1 119.073993 2 -61.246236 0
O  7 1.220137 5 123.624064 1 1.574539 0
O  7 1.346353 5 113.173662 1 -178.157081 0
C  9 1.426129 7 115.111852 5 179.593426 0
H  10 1.089006 9 105.696358 7 -174.086577 0
H  10 1.091914 9 110.583586 7 -54.049382 0
H  10 1.093080 9 110.628780 7 66.630556 0
$end

 Analysis of SCF Wavefunction
 
 --------------------------------------------------------------
 
                    Orbital Energies (a.u.)
 --------------------------------------------------------------
 
 Alpha MOs
 -- Occupied --
-66.280 -19.321 -19.265 -10.431 -10.352 -10.335  -5.397  -3.742
 -3.741  -3.741  -1.212  -1.120  -0.873  -0.798  -0.668  -0.623
 -0.597  -0.578  -0.563  -0.513  -0.496  -0.448  -0.440  -0.438
 -0.426  -0.394  -0.367  -0.335
 -- Virtual --
  0.102   0.109   0.145   0.174   0.197   0.204   0.211   0.229
  0.243   0.257   0.297   0.310   0.312   0.357   0.380   0.402
  0.485   0.586   0.597   0.616   0.623   0.650   0.678   0.711
  0.746   0.759   0.768   0.802   0.826   0.881   0.918   0.922
  0.928   0.949   0.953   1.004   1.041   1.056   1.094   1.148
  1.157   1.170   1.228   1.234   1.279   1.327   1.368   1.397
  1.408   1.549   1.652   1.678   1.719   1.802   1.883   1.903
  1.988   1.998   2.009   2.039   2.068   2.072   2.078   2.096
  2.111   2.145   2.150   2.189   2.200   2.221   2.293   2.308
  2.322   2.428   2.450   2.515   2.580   2.591   2.608   2.626
  2.678   2.755   2.783   2.824   2.873   2.877   2.929   2.955
  3.043   3.123   3.168   3.277   3.293   3.465   3.504   3.530
  4.078   4.248   4.422   4.490   4.604
 
 Beta MOs
 -- Occupied --
-66.280 -19.320 -19.261 -10.433 -10.352 -10.326  -5.398  -3.742
 -3.742  -3.741  -1.209  -1.114  -0.857  -0.780  -0.664  -0.621
 -0.587  -0.572  -0.560  -0.509  -0.480  -0.445  -0.430  -0.429
 -0.424  -0.379  -0.361
 -- Virtual --
 -0.054   0.112   0.115   0.145   0.196   0.198   0.205   0.217
  0.231   0.244   0.257   0.298   0.313   0.314   0.360   0.387
  0.402   0.490   0.589   0.608   0.618   0.637   0.654   0.679
  0.714   0.750   0.759   0.794   0.804   0.829   0.886   0.920
  0.924   0.932   0.952   0.961   1.005   1.042   1.062   1.099
  1.157   1.163   1.174   1.230   1.238   1.282   1.331   1.371
  1.404   1.421   1.554   1.653   1.718   1.720   1.812   1.897
  1.907   1.990   2.000   2.012   2.042   2.075   2.075   2.091
  2.114   2.127   2.152   2.155   2.198   2.202   2.223   2.297
  2.310   2.326   2.430   2.457   2.535   2.585   2.595   2.626
  2.629   2.678   2.757   2.786   2.826   2.876   2.878   2.930
  2.958   3.045   3.125   3.169   3.278   3.293   3.473   3.504
  3.531   4.083   4.266   4.430   4.500   4.611
 --------------------------------------------------------------
 
          Ground-State Mulliken Net Atomic Charges

     Atom                 Charge (a.u.)    Spin (a.u.)
  --------------------------------------------------------
      1 C                     0.621839      -0.092459
      2 O                    -0.478073       0.023974
      3 O                    -0.477346       0.160175
      4 C                    -0.337100       0.932178
      5 Si                    0.469442      -0.048115
      6 H                    -0.083934       0.032413
      7 H                    -0.084185       0.031090
      8 H                    -0.106363      -0.000567
      9 H                     0.169858      -0.038736
     10 C                    -0.134894      -0.002644
     11 H                     0.142813       0.000059
     12 H                     0.150837       0.000848
     13 H                     0.147105       0.001783
  --------------------------------------------------------
  Sum of atomic charges =    -0.000000
  Sum of spin   charges =     1.000000

 -----------------------------------------------------------------
                    Cartesian Multipole Moments
 -----------------------------------------------------------------
    Charge (ESU x 10^10)
                -0.0000
    Dipole Moment (Debye)
         X       0.8736      Y       1.5740      Z       0.5712
       Tot       1.8887
    Quadrupole Moments (Debye-Ang)
        XX     -36.9099     XY      -0.2081     YY     -45.8043
        XZ       0.0022     YZ      -0.9150     ZZ     -43.5751
    Octopole Moments (Debye-Ang^2)
       XXX      42.6355    XXY      -8.2898    XYY       2.7318
       YYY     -13.8892    XXZ       0.5009    XYZ      -1.7728
       YYZ       2.9777    XZZ       6.5384    YZZ      -5.9682
       ZZZ       3.4717
    Hexadecapole Moments (Debye-Ang^3)
      XXXX    -999.9509   XXXY       8.2032   XXYY    -208.5289
      XYYY     -12.6823   YYYY    -160.9119   XXXZ     -16.9276
      XXYZ      -5.3668   XYYZ      -6.9420   YYYZ     -14.2129
      XXZZ    -193.0253   XYZZ      -6.1107   YYZZ     -40.9572
      XZZZ     -26.5550   YZZZ     -16.1544   ZZZZ     -83.8714
 -----------------------------------------------------------------
Archival summary:
1\1\n58\OPT\ProcedureUnspecified\6-31G**\i1237(2)\bja39\MonMar3009:28:552015MonMar3009:28:552015\0\\#,OPT,ProcedureUnspecified,6-31G**,\\0,2\Si\H,1,1.48372\H,1,1.48373,2,109.527\H,1,1.48532,2,109.249,3,-119.546,0\C,1,1.86743,2,110.436,3,121.719,0\H,5,1.08641,1,123.463,2,118.414,0\C,5,1.45592,1,119.074,2,-61.2462,0\O,7,1.22014,5,123.624,1,1.57454,0\O,7,1.34635,5,113.174,1,-178.157,0\C,9,1.42613,7,115.112,5,179.593,0\H,10,1.08901,9,105.696,7,-174.087,0\H,10,1.09191,9,110.584,7,-54.0494,0\H,10,1.09308,9,110.629,7,66.6306,0\\\@

 Total job time:  405.44s(wall), 3717.08s(cpu) 
 Mon Mar 30 09:28:55 2015

        *************************************************************
        *                                                           *
        *  Thank you very much for using Q-Chem.  Have a nice day.  *
        *                                                           *
        *************************************************************


